
    -----------------------------------------------------------------------
          Psi4: An Open-Source Ab Initio Electronic Structure Package
                               Psi4 1.2a1.dev609 

                         Git: Rev {master} 22d37b8 


    R. M. Parrish, L. A. Burns, D. G. A. Smith, A. C. Simmonett,
    A. E. DePrince III, E. G. Hohenstein, U. Bozkaya, A. Yu. Sokolov,
    R. Di Remigio, R. M. Richard, J. F. Gonthier, A. M. James,
    H. R. McAlexander, A. Kumar, M. Saitow, X. Wang, B. P. Pritchard,
    P. Verma, H. F. Schaefer III, K. Patkowski, R. A. King, E. F. Valeev,
    F. A. Evangelista, J. M. Turney, T. D. Crawford, and C. D. Sherrill,
    J. Chem. Theory Comput. 13(7) pp 3185--3197 (2017).
    (doi: 10.1021/acs.jctc.7b00174)

    -----------------------------------------------------------------------


    Psi4 started on: Wednesday, 08 November 2017 04:47PM

    Process ID:   1312
    PSIDATADIR: /Users/bannanc/anaconda3/share/psi4
    Memory:     500.0 MiB
    Threads:    1
    
  ==> Input File <==

--------------------------------------------------------------------------
memory 5.0 Gb
molecule butane_2 {
  0 1
  C     0.4054    -0.7861      0.7011
  C     0.8210     2.2481      1.3076
  C     1.6177    -0.1733      1.3852
  C     1.2948     1.0939      2.1776
  H    -0.0013    -0.1216     -0.0668
  H     0.6850    -1.7248      0.2120
  H    -0.3857    -1.0041      1.4254
  H     1.5479     2.4712      0.5204
  H     0.6931     3.1492      1.9160
  H    -0.1419     2.0272      0.8378
  H     2.0425    -0.9149      2.0723
  H     2.3882     0.0423      0.6359
  H     0.5360     0.8755      2.9379
  H     2.1986     1.4090      2.7129
  units angstrom
}

set basis def2-sv(p)
set df_basis_mp2 def2-sv(p)-ri
set freeze_core True
optimize('mp2')--------------------------------------------------------------------------

  Memory set to   4.657 GiB by Python driver.
gradient() will perform analytic gradient computation.

*** tstart() called on Davids-iMac.local
*** at Wed Nov  8 16:47:45 2017

    SCF Algorithm Type (re)set to DF.

*** tstart() called on Davids-iMac.local
*** at Wed Nov  8 16:47:45 2017

   => Loading Basis Set <=

    Name: DEF2-SV(P)
    Role: ORBITAL
    Keyword: BASIS
    atoms 1-4  entry C          line    88 file /Users/bannanc/anaconda3/share/psi4/basis/def2-sv_p_.gbs 
    atoms 5-14 entry H          line    15 file /Users/bannanc/anaconda3/share/psi4/basis/def2-sv_p_.gbs 


         ---------------------------------------------------------
                                   SCF
            by Justin Turney, Rob Parrish, Andy Simmonett
                             and Daniel Smith
                              RHF Reference
                        1 Threads,   4768 MiB Core
         ---------------------------------------------------------

  ==> Geometry <==

    Molecular point group: c1
    Full point group: C1

    Geometry (in Angstrom), charge = 0, multiplicity = 1:

       Center              X                  Y                   Z               Mass       
    ------------   -----------------  -----------------  -----------------  -----------------
           C         -0.615705590461    -1.386131602738    -0.679195028101    12.000000000000
           C         -0.200105590461     1.648068397262    -0.072695028101    12.000000000000
           C          0.596594409539    -0.773331602738     0.004904971899    12.000000000000
           C          0.273694409539     0.493868397262     0.797304971899    12.000000000000
           H         -1.022405590461    -0.721631602738    -1.447095028101     1.007825032070
           H         -0.336105590461    -2.324831602738    -1.168295028101     1.007825032070
           H         -1.406805590461    -1.604131602738     0.045104971899     1.007825032070
           H          0.526794409539     1.871168397262    -0.859895028101     1.007825032070
           H         -0.328005590461     2.549168397262     0.535704971899     1.007825032070
           H         -1.163005590461     1.427168397262    -0.542495028101     1.007825032070
           H          1.021394409539    -1.514931602738     0.692004971899     1.007825032070
           H          1.367094409539    -0.557731602738    -0.744395028101     1.007825032070
           H         -0.485105590461     0.275468397262     1.557604971899     1.007825032070
           H          1.177494409539     0.808968397262     1.332604971899     1.007825032070

  Running in c1 symmetry.

  Rotational constants: A =      0.44393  B =      0.16091  C =      0.13717 [cm^-1]
  Rotational constants: A =  13308.69974  B =   4823.92700  C =   4112.28781 [MHz]
  Nuclear repulsion =  132.899749427092075

  Charge       = 0
  Multiplicity = 1
  Electrons    = 34
  Nalpha       = 17
  Nbeta        = 17

  ==> Algorithm <==

  SCF Algorithm Type is DF.
  DIIS enabled.
  MOM disabled.
  Fractional occupation disabled.
  Guess Type is SAD.
  Energy threshold   = 1.00e-10
  Density threshold  = 1.00e-10
  Integral threshold = 0.00e+00

  ==> Primary Basis <==

  Basis Set: DEF2-SV(P)
    Blend: DEF2-SV(P)
    Number of shells: 44
    Number of basis function: 76
    Number of Cartesian functions: 80
    Spherical Harmonics?: true
    Max angular momentum: 2

   => Loading Basis Set <=

    Name: (DEF2-SV(P) AUX)
    Role: JKFIT
    Keyword: DF_BASIS_SCF
    atoms 1-4  entry C          line   203 file /Users/bannanc/anaconda3/share/psi4/basis/def2-sv_p_-jkfit.gbs 
    atoms 5-14 entry H          line    23 file /Users/bannanc/anaconda3/share/psi4/basis/def2-sv_p_-jkfit.gbs 

  ==> Pre-Iterations <==

   -------------------------------------------------------
    Irrep   Nso     Nmo     Nalpha   Nbeta   Ndocc  Nsocc
   -------------------------------------------------------
     A         76      76       0       0       0       0
   -------------------------------------------------------
    Total      76      76      17      17      17       0
   -------------------------------------------------------

  ==> Integral Setup <==

  ==> DFJK: Density-Fitted J/K Matrices <==

    J tasked:                  Yes
    K tasked:                  Yes
    wK tasked:                  No
    OpenMP threads:              1
    Integrals threads:           1
    Memory (MB):              3576
    Algorithm:                Core
    Integral Cache:           NONE
    Schwarz Cutoff:          1E-12
    Fitting Condition:       1E-12

   => Auxiliary Basis Set <=

  Basis Set: (DEF2-SV(P) AUX)
    Blend: DEF2-SV_P_-JKFIT
    Number of shells: 160
    Number of basis function: 480
    Number of Cartesian functions: 556
    Spherical Harmonics?: true
    Max angular momentum: 4

  Minimum eigenvalue in the overlap matrix is 2.6254885273E-03.
  Using Symmetric Orthogonalization.

  SCF Guess: Superposition of Atomic Densities via on-the-fly atomic UHF.

  ==> Iterations <==

                           Total Energy        Delta E     RMS |[F,P]|

   @DF-RHF iter   0:  -158.96749293172164   -1.58967e+02   5.10677e-02 
   @DF-RHF iter   1:  -157.05502930331355    1.91246e+00   4.46188e-03 
   @DF-RHF iter   2:  -157.14995875332087   -9.49295e-02   1.28774e-03 DIIS
   @DF-RHF iter   3:  -157.15809929984584   -8.14055e-03   4.73390e-04 DIIS
   @DF-RHF iter   4:  -157.15912373426812   -1.02443e-03   1.05862e-04 DIIS
   @DF-RHF iter   5:  -157.15919199675830   -6.82625e-05   1.95131e-05 DIIS
   @DF-RHF iter   6:  -157.15919515485544   -3.15810e-06   3.68540e-06 DIIS
   @DF-RHF iter   7:  -157.15919524889512   -9.40397e-08   1.02441e-06 DIIS
   @DF-RHF iter   8:  -157.15919525417613   -5.28101e-09   2.40571e-07 DIIS
   @DF-RHF iter   9:  -157.15919525451864   -3.42510e-10   4.83387e-08 DIIS
   @DF-RHF iter  10:  -157.15919525453586   -1.72236e-11   1.05839e-08 DIIS
   @DF-RHF iter  11:  -157.15919525453643   -5.68434e-13   3.38740e-09 DIIS
   @DF-RHF iter  12:  -157.15919525453677   -3.41061e-13   7.83257e-10 DIIS
   @DF-RHF iter  13:  -157.15919525453677    0.00000e+00   1.30481e-10 DIIS
   @DF-RHF iter  14:  -157.15919525453674    2.84217e-14   3.19528e-11 DIIS

  ==> Post-Iterations <==

    Orbital Energies (a.u.)
    -----------------------

    Doubly Occupied:                                                      

       1A    -11.215022     2A    -11.214479     3A    -11.209583  
       4A    -11.209561     5A     -1.064595     6A     -0.968652  
       7A     -0.863980     8A     -0.769068     9A     -0.629001  
      10A     -0.624434    11A     -0.580059    12A     -0.536473  
      13A     -0.535712    14A     -0.508967    15A     -0.468060  
      16A     -0.461651    17A     -0.459908  

    Virtual:                                                              

      18A      0.173143    19A      0.214971    20A      0.217259  
      21A      0.224163    22A      0.258479    23A      0.271986  
      24A      0.284325    25A      0.287518    26A      0.292487  
      27A      0.313088    28A      0.389123    29A      0.401022  
      30A      0.441429    31A      0.587018    32A      0.599967  
      33A      0.625127    34A      0.631234    35A      0.635015  
      36A      0.694694    37A      0.759116    38A      0.884708  
      39A      0.891752    40A      0.907909    41A      0.927913  
      42A      0.943404    43A      0.952458    44A      0.953162  
      45A      0.969477    46A      0.970525    47A      0.990355  
      48A      0.994279    49A      1.000295    50A      1.011038  
      51A      1.014721    52A      1.028881    53A      1.064582  
      54A      1.231743    55A      1.328059    56A      1.359020  
      57A      1.705560    58A      1.715637    59A      1.954782  
      60A      1.972286    61A      2.120071    62A      2.196983  
      63A      2.241934    64A      2.255724    65A      2.273371  
      66A      2.380377    67A      2.382699    68A      2.500802  
      69A      2.522187    70A      2.567043    71A      2.615125  
      72A      2.663488    73A      2.725024    74A      2.923976  
      75A      2.925104    76A      3.038797  

    Final Occupation by Irrep:
              A 
    DOCC [    17 ]

  Energy converged.

  @DF-RHF Final Energy:  -157.15919525453674

   => Energetics <=

    Nuclear Repulsion Energy =            132.8997494270920754
    One-Electron Energy =                -473.4794789402236006
    Two-Electron Energy =                 183.4205342585947562
    Total Energy =                       -157.1591952545367405



Properties will be evaluated at   0.000000,   0.000000,   0.000000 Bohr

Properties computed using the SCF density matrix

  Nuclear Dipole Moment: (a.u.)
     X:    -0.6081      Y:     0.1956      Z:    -0.5617

  Electronic Dipole Moment: (a.u.)
     X:     0.6242      Y:    -0.2006      Z:     0.5765

  Dipole Moment: (a.u.)
     X:     0.0161      Y:    -0.0049      Z:     0.0148     Total:     0.0224

  Dipole Moment: (Debye)
     X:     0.0408      Y:    -0.0125      Z:     0.0377     Total:     0.0570


*** tstop() called on Davids-iMac.local at Wed Nov  8 16:47:47 2017
Module time:
	user time   =       1.80 seconds =       0.03 minutes
	system time =       0.05 seconds =       0.00 minutes
	total time  =          2 seconds =       0.03 minutes
Total time:
	user time   =       1.80 seconds =       0.03 minutes
	system time =       0.05 seconds =       0.00 minutes
	total time  =          2 seconds =       0.03 minutes

  //>>>>>>>>>>>>>>>>>>>>>>>>>>>>>>>>>>>//
  //               DFMP2               //
  //<<<<<<<<<<<<<<<<<<<<<<<<<<<<<<<<<<<//

   => Loading Basis Set <=

    Name: DEF2-SV(P)-RI
    Role: RIFIT
    Keyword: DF_BASIS_MP2
    atoms 1-4  entry C          line   153 file /Users/bannanc/anaconda3/share/psi4/basis/def2-sv_p_-ri.gbs 
    atoms 5-14 entry H          line    22 file /Users/bannanc/anaconda3/share/psi4/basis/def2-sv_p_-ri.gbs 

	 --------------------------------------------------------
	                          DF-MP2                         
	      2nd-Order Density-Fitted Moller-Plesset Theory     
	              RMP2 Wavefunction,   1 Threads             
	                                                         
	        Rob Parrish, Justin Turney, Andy Simmonett,      
	           Ed Hohenstein, and C. David Sherrill          
	 --------------------------------------------------------

   => Auxiliary Basis Set <=

  Basis Set: DEF2-SV(P)-RI
    Blend: DEF2-SV(P)-RI
    Number of shells: 124
    Number of basis function: 332
    Number of Cartesian functions: 370
    Spherical Harmonics?: true
    Max angular momentum: 3

	 --------------------------------------------------------
	                 NBF =    76, NAUX =   332
	 --------------------------------------------------------
	   CLASS    FOCC     OCC    AOCC    AVIR     VIR    FVIR
	   PAIRS       4      17      13      59      59       0
	 --------------------------------------------------------


         ------------------------------------------------------------
                                     CPHF                           
                                  Rob Parrish                       
         ------------------------------------------------------------

  ==> Geometry <==

    Molecular point group: c1
    Full point group: C1

    Geometry (in Angstrom), charge = 0, multiplicity = 1:

       Center              X                  Y                   Z               Mass       
    ------------   -----------------  -----------------  -----------------  -----------------
           C         -0.615705590461    -1.386131602738    -0.679195028101    12.000000000000
           C         -0.200105590461     1.648068397262    -0.072695028101    12.000000000000
           C          0.596594409539    -0.773331602738     0.004904971899    12.000000000000
           C          0.273694409539     0.493868397262     0.797304971899    12.000000000000
           H         -1.022405590461    -0.721631602738    -1.447095028101     1.007825032070
           H         -0.336105590461    -2.324831602738    -1.168295028101     1.007825032070
           H         -1.406805590461    -1.604131602738     0.045104971899     1.007825032070
           H          0.526794409539     1.871168397262    -0.859895028101     1.007825032070
           H         -0.328005590461     2.549168397262     0.535704971899     1.007825032070
           H         -1.163005590461     1.427168397262    -0.542495028101     1.007825032070
           H          1.021394409539    -1.514931602738     0.692004971899     1.007825032070
           H          1.367094409539    -0.557731602738    -0.744395028101     1.007825032070
           H         -0.485105590461     0.275468397262     1.557604971899     1.007825032070
           H          1.177494409539     0.808968397262     1.332604971899     1.007825032070

  Nuclear repulsion =  132.899749427092075
  Reference energy  = -157.159195254536741

  ==> Basis Set <==

  Basis Set: DEF2-SV(P)
    Blend: DEF2-SV(P)
    Number of shells: 44
    Number of basis function: 76
    Number of Cartesian functions: 80
    Spherical Harmonics?: true
    Max angular momentum: 2

  ==> CGRSolver (by Rob Parrish) <==

   Number of roots    =         1
   Preconditioning    =    JACOBI
   Convergence cutoff =     1E-06
   Maximum iterations =       100

  ==> CPHFRHamiltonian (by Rob Parrish) <== 

  ==> DFJK: Density-Fitted J/K Matrices <==

    J tasked:                  Yes
    K tasked:                  Yes
    wK tasked:                  No
    OpenMP threads:              1
    Integrals threads:           1
    Memory (MB):              3576
    Algorithm:                Core
    Integral Cache:           NONE
    Schwarz Cutoff:          1E-12
    Fitting Condition:       1E-12

   => Auxiliary Basis Set <=

  Basis Set: (DEF2-SV(P) AUX)
    Blend: DEF2-SV_P_-JKFIT
    Number of shells: 160
    Number of basis function: 480
    Number of Cartesian functions: 556
    Spherical Harmonics?: true
    Max angular momentum: 4

  ==> CPHF Iterations <==

  => Iterations <=

             Iter  Converged  Remaining    Residual
  CGR           1          0          1   9.819E-02
  CGR           2          0          1   9.659E-03
  CGR           3          0          1   2.968E-03
  CGR           4          0          1   4.489E-04
  CGR           5          0          1   9.958E-05
  CGR           6          0          1   1.296E-05
  CGR           7          0          1   2.394E-06
  CGR           8          1          0   4.587E-07

    CGRSolver converged.

  ==> DFCorrGrad: Density-Fitted Correlated Gradients <==

    OpenMP threads:              1
    Integrals threads:           1
    Memory (MB):              3576
    Schwarz Cutoff:          0E+00
    Fitting Condition:       1E-12

   => Auxiliary Basis Set <=

  Basis Set: (DEF2-SV(P) AUX)
    Blend: DEF2-SV_P_-JKFIT
    Number of shells: 160
    Number of basis function: 480
    Number of Cartesian functions: 556
    Spherical Harmonics?: true
    Max angular momentum: 4

	-----------------------------------------------------------
	 ==================> DF-MP2 Energies <==================== 
	-----------------------------------------------------------
	 Reference Energy          =    -157.1591952545367405 [Eh]
	 Singles Energy            =      -0.0000000000000000 [Eh]
	 Same-Spin Energy          =      -0.1189479003616089 [Eh]
	 Opposite-Spin Energy      =      -0.3960518832425250 [Eh]
	 Correlation Energy        =      -0.5149997836041339 [Eh]
	 Total Energy              =    -157.6741950381408799 [Eh]
	-----------------------------------------------------------
	 ================> DF-SCS-MP2 Energies <================== 
	-----------------------------------------------------------
	 SCS Same-Spin Scale       =       0.3333333333333333 [-]
	 SCS Opposite-Spin Scale   =       1.2000000000000000 [-]
	 SCS Same-Spin Energy      =      -0.0396493001205363 [Eh]
	 SCS Opposite-Spin Energy  =      -0.4752622598910300 [Eh]
	 SCS Correlation Energy    =      -0.5149115600115663 [Eh]
	 SCS Total Energy          =    -157.6741068145483098 [Eh]
	-----------------------------------------------------------


  -Total Gradient:
     Atom            X                  Y                   Z
    ------   -----------------  -----------------  -----------------
       1       -0.005058347878    -0.000346760337     0.001024678641
       2        0.001139015018     0.001731379415    -0.004876819302
       3        0.007895497641    -0.001353938467    -0.005778064416
       4       -0.005010516924     0.000311003029     0.008610575190
       5        0.003365897781    -0.003382232239     0.004402471294
       6       -0.000000807801     0.005928983122     0.003398240110
       7        0.005289304903     0.001099685203    -0.004420775178
       8       -0.004425706179    -0.001333769160     0.005277998991
       9        0.001216149703    -0.006343031973    -0.002250688395
      10        0.005360298217     0.000510001818     0.003645311540
      11       -0.003768392841     0.004234101647    -0.003411945492
      12       -0.005458831968    -0.002323488373     0.003725061004
      13        0.004140892263     0.002717888971    -0.004971449842
      14       -0.004684451933    -0.001449822656    -0.004374594145


*** tstop() called on Davids-iMac.local at Wed Nov  8 16:47:51 2017
Module time:
	user time   =       5.28 seconds =       0.09 minutes
	system time =       0.17 seconds =       0.00 minutes
	total time  =          6 seconds =       0.10 minutes
Total time:
	user time   =       5.28 seconds =       0.09 minutes
	system time =       0.17 seconds =       0.00 minutes
	total time  =          6 seconds =       0.10 minutes

			-----------------------------------------
			 OPTKING 2.0: for geometry optimizations 
			  - R.A. King,  Bethel University        
			-----------------------------------------

	Internal coordinates to be generated automatically.
	Detected frag 1 with atoms:  1 2 3 4 5 6 7 8 9 10 11 12 13 14
	---Fragment 1 Bond Connectivity---
	 1 : 3 5 6 7
	 2 : 4 8 9 10
	 3 : 1 4 11 12
	 4 : 2 3 13 14
	 5 : 1
	 6 : 1
	 7 : 1
	 8 : 2
	 9 : 2
	 10 : 2
	 11 : 3
	 12 : 3
	 13 : 4
	 14 : 4

	---Fragment 1 Geometry and Gradient---
	 C          -1.1635149445       -2.6194091133       -1.2834925939
	 C          -0.3781447636        3.1143979191       -0.1373736943
	 C           1.1274000464       -1.4613849391        0.0092690536
	 C           0.5172074781        0.9332760165        1.5066880413
	 H          -1.9320665627       -1.3636860980       -2.7346132914
	 H          -0.6351475177       -4.3932950343       -2.2077576455
	 H          -2.6584772882       -3.0313694103        0.0852360441
	 H           0.9954971624        3.5359958193       -1.6249661061
	 H          -0.6198407360        4.8172301374        1.0123356849
	 H          -2.1977620570        2.6969574163       -1.0251670316
	 H           1.9301557077       -2.8628058392        1.3076998795
	 H           2.5834340318       -1.0539599848       -1.4067027378
	 H          -0.9167167115        0.5205598291        2.9434468201
	 H           2.2251419570        1.5287287210        2.5182584402
	            -0.0050583479       -0.0003467603        0.0010246786
	             0.0011390150        0.0017313794       -0.0048768193
	             0.0078954976       -0.0013539385       -0.0057780644
	            -0.0050105169        0.0003110030        0.0086105752
	             0.0033658978       -0.0033822322        0.0044024713
	            -0.0000008078        0.0059289831        0.0033982401
	             0.0052893049        0.0010996852       -0.0044207752
	            -0.0044257062       -0.0013337692        0.0052779990
	             0.0012161497       -0.0063430320       -0.0022506884
	             0.0053602982        0.0005100018        0.0036453115
	            -0.0037683928        0.0042341016       -0.0034119455
	            -0.0054588320       -0.0023234884        0.0037250610
	             0.0041408923        0.0027178890       -0.0049714498
	            -0.0046844519       -0.0014498227       -0.0043745941

	Previous optimization step data not found.  Starting new optimization.

	---Fragment 1 Intrafragment Coordinates---
	 - Coordinate -           - BOHR/RAD -       - ANG/DEG -
	 R(1,3)           =         2.874116	       1.520917
	 R(1,5)           =         2.067187	       1.093908
	 R(1,6)           =         2.068842	       1.094784
	 R(1,7)           =         2.068343	       1.094520
	 R(2,4)           =         2.874350	       1.521040
	 R(2,8)           =         2.068228	       1.094459
	 R(2,9)           =         2.068789	       1.094756
	 R(2,10)          =         2.067230	       1.093931
	 R(3,4)           =         2.889464	       1.529038
	 R(3,11)          =         2.072274	       1.096600
	 R(3,12)          =         2.071474	       1.096177
	 R(4,13)          =         2.071412	       1.096144
	 R(4,14)          =         2.072409	       1.096672
	 B(1,3,4)         =         1.980884	     113.496304
	 B(1,3,11)        =         1.894545	     108.549455
	 B(1,3,12)        =         1.909278	     109.393574
	 B(2,4,3)         =         1.980396	     113.468357
	 B(2,4,13)        =         1.909526	     109.407773
	 B(2,4,14)        =         1.894285	     108.534517
	 B(3,1,5)         =         1.946942	     111.551573
	 B(3,1,6)         =         1.920744	     110.050546
	 B(3,1,7)         =         1.937690	     111.021444
	 B(3,4,13)        =         1.918263	     109.908356
	 B(3,4,14)        =         1.893403	     108.484011
	 B(4,2,8)         =         1.938203	     111.050871
	 B(4,2,9)         =         1.921025	     110.066646
	 B(4,2,10)        =         1.946145	     111.505881
	 B(4,3,11)        =         1.893951	     108.515380
	 B(4,3,12)        =         1.917370	     109.857195
	 B(5,1,6)         =         1.877784	     107.589124
	 B(5,1,7)         =         1.893154	     108.469742
	 B(6,1,7)         =         1.885418	     108.026468
	 B(8,2,9)         =         1.885495	     108.030878
	 B(8,2,10)        =         1.893234	     108.474322
	 B(9,2,10)        =         1.877633	     107.580428
	 B(11,3,12)       =         1.864002	     106.799439
	 B(13,4,14)       =         1.864172	     106.809192
	 D(1,3,4,2)       =        -1.130421	     -64.768365
	 D(1,3,4,13)      =         1.013801	      58.086543
	 D(1,3,4,14)      =         3.046174	     174.532939
	 D(2,4,3,11)      =         3.045142	     174.473809
	 D(2,4,3,12)      =         1.013155	      58.049533
	 D(3,4,2,8)       =        -0.965490	     -55.318510
	 D(3,4,2,9)       =        -3.052617	    -174.902081
	 D(3,4,2,10)      =         1.148185	      65.786129
	 D(4,3,1,5)       =         1.129115	      64.693546
	 D(4,3,1,6)       =        -3.071171	    -175.965108
	 D(4,3,1,7)       =        -0.984650	     -56.416262
	 D(5,1,3,11)      =        -3.046783	    -174.567828
	 D(5,1,3,12)      =        -1.018914	     -58.379453
	 D(6,1,3,11)      =        -0.963884	     -55.226482
	 D(6,1,3,12)      =         1.063986	      60.961892
	 D(7,1,3,11)      =         1.122637	      64.322363
	 D(7,1,3,12)      =        -3.132679	    -179.489262
	 D(8,2,4,13)      =        -3.114520	    -178.448857
	 D(8,2,4,14)      =         1.140602	      65.351692
	 D(9,2,4,13)      =         1.081538	      61.967572
	 D(9,2,4,14)      =        -0.946525	     -54.231879
	 D(10,2,4,13)     =        -1.000845	     -57.344218
	 D(10,2,4,14)     =        -3.028908	    -173.543669
	 D(11,3,4,13)     =        -1.093820	     -62.671284
	 D(11,3,4,14)     =         0.938553	      53.775112
	 D(12,3,4,13)     =        -3.125807	    -179.095560
	 D(12,3,4,14)     =        -1.093434	     -62.649163

	Current energy   :      -157.6741950381

	Generating empirical Hessian (Schlegel '84) for each fragment.
	Taking RFO optimization step.
	Going to follow RFO solution 1.
	Using RFO vector 1.
	Norm of target step-size    0.13816
	Projected energy change by RFO approximation:        -0.0025736084

	Back-transformation to cartesian coordinates...
	Successfully converged to displaced geometry.
	First geometry is closer to target in internal coordinates, so am using that one.
	First geometry has RMS(Delta(q)) = 2.19e-04

	--- Internal Coordinate Step in ANG or DEG, aJ/ANG or AJ/DEG ---
	 ---------------------------------------------------------------------------
	   Coordinate                Previous        Force       Change         New 
	   ----------                --------       ------       ------       ------
	    1 R(1,3)          =      1.520917     0.050891     0.010910     1.531827
	    2 R(1,5)          =      1.093908     0.052698     0.009850     1.103759
	    3 R(1,6)          =      1.094784     0.054393     0.010311     1.105096
	    4 R(1,7)          =      1.094520     0.057403     0.010916     1.105436
	    5 R(2,4)          =      1.521040     0.050886     0.010967     1.532008
	    6 R(2,8)          =      1.094459     0.057733     0.010845     1.105304
	    7 R(2,9)          =      1.094756     0.054490     0.010260     1.105016
	    8 R(2,10)         =      1.093931     0.052619     0.009803     1.103734
	    9 R(3,4)          =      1.529038     0.017864     0.004081     1.533119
	   10 R(3,11)         =      1.096600     0.053231     0.009982     1.106582
	   11 R(3,12)         =      1.096177     0.056355     0.010700     1.106877
	   12 R(4,13)         =      1.096144     0.056487     0.010755     1.106899
	   13 R(4,14)         =      1.096672     0.052831     0.009912     1.106584
	   14 B(1,3,4)        =    113.496304     0.000177     0.742005   114.238309
	   15 B(1,3,11)       =    108.549455    -0.000021     0.547366   109.096821
	   16 B(1,3,12)       =    109.393574     0.000009     0.016702   109.410276
	   17 B(2,4,3)        =    113.468357     0.000181     0.756347   114.224705
	   18 B(2,4,13)       =    109.407773     0.000007    -0.016888   109.390885
	   19 B(2,4,14)       =    108.534517    -0.000019     0.591863   109.126380
	   20 B(3,1,5)        =    111.551573     0.000076     0.330034   111.881607
	   21 B(3,1,6)        =    110.050546     0.000187     1.006663   111.057209
	   22 B(3,1,7)        =    111.021444    -0.000041    -0.319305   110.702140
	   23 B(3,4,13)       =    109.908356    -0.000153    -1.185910   108.722447
	   24 B(3,4,14)       =    108.484011    -0.000018     0.375992   108.860003
	   25 B(4,2,8)        =    111.050871    -0.000047    -0.353350   110.697521
	   26 B(4,2,9)        =    110.066646     0.000185     1.001846   111.068492
	   27 B(4,2,10)       =    111.505881     0.000087     0.381191   111.887073
	   28 B(4,3,11)       =    108.515380    -0.000018     0.344230   108.859610
	   29 B(4,3,12)       =    109.857195    -0.000149    -1.141611   108.715585
	   30 B(5,1,6)        =    107.589124    -0.000101    -0.204192   107.384932
	   31 B(5,1,7)        =    108.469742    -0.000061    -0.568651   107.901091
	   32 B(6,1,7)        =    108.026468    -0.000071    -0.291590   107.734878
	   33 B(8,2,9)        =    108.030878    -0.000068    -0.297446   107.733432
	   34 B(8,2,10)       =    108.474322    -0.000063    -0.573403   107.900918
	   35 B(9,2,10)       =    107.580428    -0.000103    -0.206694   107.373734
	   36 B(11,3,12)      =    106.799439    -0.000007    -0.586170   106.213269
	   37 B(13,4,14)      =    106.809192    -0.000007    -0.599107   106.210085
	   38 D(1,3,4,2)      =    -64.768365     0.000010     2.756375   -62.011989
	   39 D(1,3,4,13)     =     58.086543     0.000015     2.374503    60.461046
	   40 D(1,3,4,14)     =    174.532939    -0.000009     1.221502   175.754441
	   41 D(2,4,3,11)     =    174.473809    -0.000008     1.309832   175.783641
	   42 D(2,4,3,12)     =     58.049533     0.000015     2.440842    60.490374
	   43 D(3,4,2,8)      =    -55.318510    -0.000007    -0.982225   -56.300735
	   44 D(3,4,2,9)      =   -174.902081    -0.000008    -1.034027  -175.936108
	   45 D(3,4,2,10)     =     65.786129    -0.000020    -1.696721    64.089408
	   46 D(4,3,1,5)      =     64.693546    -0.000018    -0.987252    63.706294
	   47 D(4,3,1,6)      =   -175.965108    -0.000007    -0.351303  -176.316411
	   48 D(4,3,1,7)      =    -56.416262    -0.000006    -0.267298   -56.683561
	   49 D(5,1,3,11)     =   -174.567828    -0.000000     0.348645  -174.219182
	   50 D(5,1,3,12)     =    -58.379453    -0.000004    -0.037068   -58.416521
	   51 D(6,1,3,11)     =    -55.226482     0.000010     0.984595   -54.241888
	   52 D(6,1,3,12)     =     60.961892     0.000007     0.598882    61.560774
	   53 D(7,1,3,11)     =     64.322363     0.000012     1.068599    65.390963
	   54 D(7,1,3,12)     =   -179.489262     0.000009     0.682886  -178.806376
	   55 D(8,2,4,13)     =   -178.448857     0.000008     0.040476  -178.408381
	   56 D(8,2,4,14)     =     65.351692     0.000011     0.435326    65.787019
	   57 D(9,2,4,13)     =     61.967572     0.000007    -0.011326    61.956246
	   58 D(9,2,4,14)     =    -54.231879     0.000010     0.383524   -53.848354
	   59 D(10,2,4,13)    =    -57.344218    -0.000004    -0.674019   -58.018237
	   60 D(10,2,4,14)    =   -173.543669    -0.000001    -0.279169  -173.822838
	   61 D(11,3,4,13)    =    -62.671284    -0.000002     0.927960   -61.743324
	   62 D(11,3,4,14)    =     53.775112    -0.000026    -0.225041    53.550071
	   63 D(12,3,4,13)    =   -179.095560     0.000021     2.058969  -177.036591
	   64 D(12,3,4,14)    =    -62.649163    -0.000003     0.905968   -61.743195
	 ---------------------------------------------------------------------------
	Successfully symmetrized geometry.

  ==> Convergence Check <==

  Measures of convergence in internal coordinates in au.
  Criteria marked as inactive (o), active & met (*), and active & unmet ( ).
  --------------------------------------------------------------------------------------------- ~
   Step     Total Energy     Delta E     MAX Force     RMS Force      MAX Disp      RMS Disp    ~
  --------------------------------------------------------------------------------------------- ~
    Convergence Criteria    1.00e-06 *    3.00e-04 *             o    1.20e-03 *             o  ~
  --------------------------------------------------------------------------------------------- ~
      1    -157.67419504   -1.58e+02      7.01e-03      3.00e-03 o    4.81e-02      1.73e-02 o  ~
  ---------------------------------------------------------------------------------------------

	Writing optimization data to binary file.
	Structure for next step:
	Cartesian Geometry (in Angstrom)
	    C    -0.6161739485  -1.3924910860  -0.6922054796
	    C    -0.2109653894   1.6579765504  -0.0683562249
	    C     0.5972803888  -0.7842128348   0.0177373173
	    C     0.2915723891   0.4991974052   0.7986695763
	    H    -1.0160568870  -0.7210085774  -1.4716208318
	    H    -0.3520937825  -2.3470341437  -1.1824557441
	    H    -1.4284899165  -1.5977443233   0.0289067658
	    H     0.5119806994   1.8861424244  -0.8727111612
	    H    -0.3455270287   2.5749965344   0.5333312574
	    H    -1.1819116817   1.4278908561  -0.5401102399
	    H     1.0230844925  -1.5328588098   0.7125352257
	    H     1.3881128714  -0.5676664928  -0.7258140774
	    H    -0.4604281079   0.2702995584   1.5779817883
	    H     1.2054376346   0.8176705007   1.3352814348
			--------------------------
			 OPTKING Finished Execution 
			--------------------------

    Structure for next step:
    Molecular point group: c1
    Full point group: C1

    Geometry (in Angstrom), charge = 0, multiplicity = 1:

    C           -0.617543431845    -1.392111883458    -0.693251225343
    C           -0.212334872816     1.658355752909    -0.069401970612
    C            0.595910905381    -0.783833632299     0.016691571604
    C            0.290202905656     0.499576607702     0.797623830628
    H           -1.017426370349    -0.720629374879    -1.472666577456
    H           -0.353463265918    -2.346654941207    -1.183501489850
    H           -1.429859399881    -1.597365120757     0.027861020122
    H            0.510611216017     1.886521626912    -0.873756906945
    H           -0.346896512118     2.575375736972     0.532285511738
    H           -1.183281165132     1.428270058677    -0.541155985615
    H            1.021715009083    -1.532479607262     0.711489479963
    H            1.386743388027    -0.567287290241    -0.726859823109
    H           -0.461797591271     0.270678760923     1.576936042551
    H            1.204068151191     0.818049703243     1.334235689052

gradient() will perform analytic gradient computation.

*** tstart() called on Davids-iMac.local
*** at Wed Nov  8 16:47:51 2017

    SCF Algorithm Type (re)set to DF.

*** tstart() called on Davids-iMac.local
*** at Wed Nov  8 16:47:51 2017

   => Loading Basis Set <=

    Name: DEF2-SV(P)
    Role: ORBITAL
    Keyword: BASIS
    atoms 1-4  entry C          line    88 file /Users/bannanc/anaconda3/share/psi4/basis/def2-sv_p_.gbs 
    atoms 5-14 entry H          line    15 file /Users/bannanc/anaconda3/share/psi4/basis/def2-sv_p_.gbs 


         ---------------------------------------------------------
                                   SCF
            by Justin Turney, Rob Parrish, Andy Simmonett
                             and Daniel Smith
                              RHF Reference
                        1 Threads,   4768 MiB Core
         ---------------------------------------------------------

  ==> Geometry <==

    Molecular point group: c1
    Full point group: C1

    Geometry (in Angstrom), charge = 0, multiplicity = 1:

       Center              X                  Y                   Z               Mass       
    ------------   -----------------  -----------------  -----------------  -----------------
           C         -0.617543431845    -1.392111883458    -0.693251225343    12.000000000000
           C         -0.212334872816     1.658355752909    -0.069401970612    12.000000000000
           C          0.595910905381    -0.783833632299     0.016691571604    12.000000000000
           C          0.290202905656     0.499576607702     0.797623830628    12.000000000000
           H         -1.017426370349    -0.720629374879    -1.472666577456     1.007825032070
           H         -0.353463265918    -2.346654941207    -1.183501489850     1.007825032070
           H         -1.429859399881    -1.597365120757     0.027861020122     1.007825032070
           H          0.510611216017     1.886521626912    -0.873756906945     1.007825032070
           H         -0.346896512118     2.575375736972     0.532285511738     1.007825032070
           H         -1.183281165132     1.428270058677    -0.541155985615     1.007825032070
           H          1.021715009083    -1.532479607262     0.711489479963     1.007825032070
           H          1.386743388027    -0.567287290241    -0.726859823109     1.007825032070
           H         -0.461797591271     0.270678760923     1.576936042551     1.007825032070
           H          1.204068151191     0.818049703243     1.334235689052     1.007825032070

  Running in c1 symmetry.

  Rotational constants: A =      0.43554  B =      0.15919  C =      0.13471 [cm^-1]
  Rotational constants: A =  13057.14430  B =   4772.47244  C =   4038.44736 [MHz]
  Nuclear repulsion =  131.877657826510074

  Charge       = 0
  Multiplicity = 1
  Electrons    = 34
  Nalpha       = 17
  Nbeta        = 17

  ==> Algorithm <==

  SCF Algorithm Type is DF.
  DIIS enabled.
  MOM disabled.
  Fractional occupation disabled.
  Guess Type is READ.
  Energy threshold   = 1.00e-10
  Density threshold  = 1.00e-10
  Integral threshold = 0.00e+00

  ==> Primary Basis <==

  Basis Set: DEF2-SV(P)
    Blend: DEF2-SV(P)
    Number of shells: 44
    Number of basis function: 76
    Number of Cartesian functions: 80
    Spherical Harmonics?: true
    Max angular momentum: 2

   => Loading Basis Set <=

    Name: (DEF2-SV(P) AUX)
    Role: JKFIT
    Keyword: DF_BASIS_SCF
    atoms 1-4  entry C          line   203 file /Users/bannanc/anaconda3/share/psi4/basis/def2-sv_p_-jkfit.gbs 
    atoms 5-14 entry H          line    23 file /Users/bannanc/anaconda3/share/psi4/basis/def2-sv_p_-jkfit.gbs 

  Reading orbitals from file 180, no projection.

  ==> Pre-Iterations <==

   -------------------------------------------------------
    Irrep   Nso     Nmo     Nalpha   Nbeta   Ndocc  Nsocc
   -------------------------------------------------------
     A         76      76       0       0       0       0
   -------------------------------------------------------
    Total      76      76      17      17      17       0
   -------------------------------------------------------

  ==> Integral Setup <==

  ==> DFJK: Density-Fitted J/K Matrices <==

    J tasked:                  Yes
    K tasked:                  Yes
    wK tasked:                  No
    OpenMP threads:              1
    Integrals threads:           1
    Memory (MB):              3576
    Algorithm:                Core
    Integral Cache:           NONE
    Schwarz Cutoff:          1E-12
    Fitting Condition:       1E-12

   => Auxiliary Basis Set <=

  Basis Set: (DEF2-SV(P) AUX)
    Blend: DEF2-SV_P_-JKFIT
    Number of shells: 160
    Number of basis function: 480
    Number of Cartesian functions: 556
    Spherical Harmonics?: true
    Max angular momentum: 4

  Minimum eigenvalue in the overlap matrix is 2.7467093362E-03.
  Using Symmetric Orthogonalization.

  SCF Guess: Orbitals guess was supplied from a previous computation.

  ==> Iterations <==

                           Total Energy        Delta E     RMS |[F,P]|

   @DF-RHF iter   0:  -157.10965854919618   -1.57110e+02   6.91479e-04 
   @DF-RHF iter   1:  -157.15867327410456   -4.90147e-02   9.92972e-05 
   @DF-RHF iter   2:  -157.15872153337835   -4.82593e-05   3.80908e-05 DIIS
   @DF-RHF iter   3:  -157.15872704063113   -5.50725e-06   1.31513e-05 DIIS
   @DF-RHF iter   4:  -157.15872795677322   -9.16142e-07   1.55196e-06 DIIS
   @DF-RHF iter   5:  -157.15872797475129   -1.79781e-08   4.46729e-07 DIIS
   @DF-RHF iter   6:  -157.15872797578976   -1.03847e-09   1.22907e-07 DIIS
   @DF-RHF iter   7:  -157.15872797586925   -7.94955e-11   2.19416e-08 DIIS
   @DF-RHF iter   8:  -157.15872797587298   -3.72324e-12   3.78186e-09 DIIS
   @DF-RHF iter   9:  -157.15872797587292    5.68434e-14   8.02284e-10 DIIS
   @DF-RHF iter  10:  -157.15872797587301   -8.52651e-14   1.41051e-10 DIIS
   @DF-RHF iter  11:  -157.15872797587278    2.27374e-13   2.79115e-11 DIIS

  ==> Post-Iterations <==

    Orbital Energies (a.u.)
    -----------------------

    Doubly Occupied:                                                      

       1A    -11.219944     2A    -11.219413     3A    -11.214932  
       4A    -11.214909     5A     -1.059642     6A     -0.963913  
       7A     -0.862786     8A     -0.765875     9A     -0.625177  
      10A     -0.620365    11A     -0.574382    12A     -0.536016  
      13A     -0.533601    14A     -0.505843    15A     -0.464266  
      16A     -0.462261    17A     -0.460479  

    Virtual:                                                              

      18A      0.171819    19A      0.212945    20A      0.216640  
      21A      0.224127    22A      0.256813    23A      0.269067  
      24A      0.282267    25A      0.285926    26A      0.291710  
      27A      0.309868    28A      0.386860    29A      0.395280  
      30A      0.440835    31A      0.582652    32A      0.597925  
      33A      0.626761    34A      0.630765    35A      0.632317  
      36A      0.698527    37A      0.761959    38A      0.878937  
      39A      0.881156    40A      0.896677    41A      0.921860  
      42A      0.941323    43A      0.947994    44A      0.951805  
      45A      0.959816    46A      0.964469    47A      0.982971  
      48A      0.988454    49A      0.993757    50A      1.003774  
      51A      1.004911    52A      1.015635    53A      1.049591  
      54A      1.225623    55A      1.318461    56A      1.348456  
      57A      1.705296    58A      1.720160    59A      1.947169  
      60A      1.970576    61A      2.115025    62A      2.188393  
      63A      2.230278    64A      2.241015    65A      2.275456  
      66A      2.359948    67A      2.371861    68A      2.486935  
      69A      2.509926    70A      2.558585    71A      2.597860  
      72A      2.654796    73A      2.702861    74A      2.909448  
      75A      2.923602    76A      3.026518  

    Final Occupation by Irrep:
              A 
    DOCC [    17 ]

  Energy converged.

  @DF-RHF Final Energy:  -157.15872797587278

   => Energetics <=

    Nuclear Repulsion Energy =            131.8776578265100738
    One-Electron Energy =                -471.4651666702433772
    Two-Electron Energy =                 182.4287808678605245
    Total Energy =                       -157.1587279758727789



Properties will be evaluated at   0.000000,   0.000000,   0.000000 Bohr

Properties computed using the SCF density matrix

  Nuclear Dipole Moment: (a.u.)
     X:    -0.6277      Y:     0.2011      Z:    -0.5767

  Electronic Dipole Moment: (a.u.)
     X:     0.6409      Y:    -0.2052      Z:     0.5888

  Dipole Moment: (a.u.)
     X:     0.0132      Y:    -0.0041      Z:     0.0122     Total:     0.0184

  Dipole Moment: (Debye)
     X:     0.0336      Y:    -0.0105      Z:     0.0309     Total:     0.0468


*** tstop() called on Davids-iMac.local at Wed Nov  8 16:47:52 2017
Module time:
	user time   =       1.28 seconds =       0.02 minutes
	system time =       0.03 seconds =       0.00 minutes
	total time  =          1 seconds =       0.02 minutes
Total time:
	user time   =       6.61 seconds =       0.11 minutes
	system time =       0.21 seconds =       0.00 minutes
	total time  =          7 seconds =       0.12 minutes

  //>>>>>>>>>>>>>>>>>>>>>>>>>>>>>>>>>>>//
  //               DFMP2               //
  //<<<<<<<<<<<<<<<<<<<<<<<<<<<<<<<<<<<//

   => Loading Basis Set <=

    Name: DEF2-SV(P)-RI
    Role: RIFIT
    Keyword: DF_BASIS_MP2
    atoms 1-4  entry C          line   153 file /Users/bannanc/anaconda3/share/psi4/basis/def2-sv_p_-ri.gbs 
    atoms 5-14 entry H          line    22 file /Users/bannanc/anaconda3/share/psi4/basis/def2-sv_p_-ri.gbs 

	 --------------------------------------------------------
	                          DF-MP2                         
	      2nd-Order Density-Fitted Moller-Plesset Theory     
	              RMP2 Wavefunction,   1 Threads             
	                                                         
	        Rob Parrish, Justin Turney, Andy Simmonett,      
	           Ed Hohenstein, and C. David Sherrill          
	 --------------------------------------------------------

   => Auxiliary Basis Set <=

  Basis Set: DEF2-SV(P)-RI
    Blend: DEF2-SV(P)-RI
    Number of shells: 124
    Number of basis function: 332
    Number of Cartesian functions: 370
    Spherical Harmonics?: true
    Max angular momentum: 3

	 --------------------------------------------------------
	                 NBF =    76, NAUX =   332
	 --------------------------------------------------------
	   CLASS    FOCC     OCC    AOCC    AVIR     VIR    FVIR
	   PAIRS       4      17      13      59      59       0
	 --------------------------------------------------------


         ------------------------------------------------------------
                                     CPHF                           
                                  Rob Parrish                       
         ------------------------------------------------------------

  ==> Geometry <==

    Molecular point group: c1
    Full point group: C1

    Geometry (in Angstrom), charge = 0, multiplicity = 1:

       Center              X                  Y                   Z               Mass       
    ------------   -----------------  -----------------  -----------------  -----------------
           C         -0.617543431845    -1.392111883458    -0.693251225343    12.000000000000
           C         -0.212334872816     1.658355752909    -0.069401970612    12.000000000000
           C          0.595910905381    -0.783833632299     0.016691571604    12.000000000000
           C          0.290202905656     0.499576607702     0.797623830628    12.000000000000
           H         -1.017426370349    -0.720629374879    -1.472666577456     1.007825032070
           H         -0.353463265918    -2.346654941207    -1.183501489850     1.007825032070
           H         -1.429859399881    -1.597365120757     0.027861020122     1.007825032070
           H          0.510611216017     1.886521626912    -0.873756906945     1.007825032070
           H         -0.346896512118     2.575375736972     0.532285511738     1.007825032070
           H         -1.183281165132     1.428270058677    -0.541155985615     1.007825032070
           H          1.021715009083    -1.532479607262     0.711489479963     1.007825032070
           H          1.386743388027    -0.567287290241    -0.726859823109     1.007825032070
           H         -0.461797591271     0.270678760923     1.576936042551     1.007825032070
           H          1.204068151191     0.818049703243     1.334235689052     1.007825032070

  Nuclear repulsion =  131.877657826510074
  Reference energy  = -157.158727975872779

  ==> Basis Set <==

  Basis Set: DEF2-SV(P)
    Blend: DEF2-SV(P)
    Number of shells: 44
    Number of basis function: 76
    Number of Cartesian functions: 80
    Spherical Harmonics?: true
    Max angular momentum: 2

  ==> CGRSolver (by Rob Parrish) <==

   Number of roots    =         1
   Preconditioning    =    JACOBI
   Convergence cutoff =     1E-06
   Maximum iterations =       100

  ==> CPHFRHamiltonian (by Rob Parrish) <== 

  ==> DFJK: Density-Fitted J/K Matrices <==

    J tasked:                  Yes
    K tasked:                  Yes
    wK tasked:                  No
    OpenMP threads:              1
    Integrals threads:           1
    Memory (MB):              3576
    Algorithm:                Core
    Integral Cache:           NONE
    Schwarz Cutoff:          1E-12
    Fitting Condition:       1E-12

   => Auxiliary Basis Set <=

  Basis Set: (DEF2-SV(P) AUX)
    Blend: DEF2-SV_P_-JKFIT
    Number of shells: 160
    Number of basis function: 480
    Number of Cartesian functions: 556
    Spherical Harmonics?: true
    Max angular momentum: 4

  ==> CPHF Iterations <==

  => Iterations <=

             Iter  Converged  Remaining    Residual
  CGR           1          0          1   9.769E-02
  CGR           2          0          1   9.663E-03
  CGR           3          0          1   3.005E-03
  CGR           4          0          1   4.584E-04
  CGR           5          0          1   1.002E-04
  CGR           6          0          1   1.283E-05
  CGR           7          0          1   2.252E-06
  CGR           8          1          0   4.330E-07

    CGRSolver converged.

  ==> DFCorrGrad: Density-Fitted Correlated Gradients <==

    OpenMP threads:              1
    Integrals threads:           1
    Memory (MB):              3576
    Schwarz Cutoff:          0E+00
    Fitting Condition:       1E-12

   => Auxiliary Basis Set <=

  Basis Set: (DEF2-SV(P) AUX)
    Blend: DEF2-SV_P_-JKFIT
    Number of shells: 160
    Number of basis function: 480
    Number of Cartesian functions: 556
    Spherical Harmonics?: true
    Max angular momentum: 4

	-----------------------------------------------------------
	 ==================> DF-MP2 Energies <==================== 
	-----------------------------------------------------------
	 Reference Energy          =    -157.1587279758727789 [Eh]
	 Singles Energy            =      -0.0000000000000000 [Eh]
	 Same-Spin Energy          =      -0.1188988715422532 [Eh]
	 Opposite-Spin Energy      =      -0.3974824554792007 [Eh]
	 Correlation Energy        =      -0.5163813270214539 [Eh]
	 Total Energy              =    -157.6751093028942421 [Eh]
	-----------------------------------------------------------
	 ================> DF-SCS-MP2 Energies <================== 
	-----------------------------------------------------------
	 SCS Same-Spin Scale       =       0.3333333333333333 [-]
	 SCS Opposite-Spin Scale   =       1.2000000000000000 [-]
	 SCS Same-Spin Energy      =      -0.0396329571807511 [Eh]
	 SCS Opposite-Spin Energy  =      -0.4769789465750409 [Eh]
	 SCS Correlation Energy    =      -0.5166119037557919 [Eh]
	 SCS Total Energy          =    -157.6753398796285808 [Eh]
	-----------------------------------------------------------


  -Total Gradient:
     Atom            X                  Y                   Z
    ------   -----------------  -----------------  -----------------
       1       -0.001400219612    -0.000402298331    -0.000869973878
       2       -0.000747133745     0.001161084474    -0.001159145588
       3        0.001009062825    -0.000768060439     0.001189445131
       4        0.001517071983    -0.000034345762     0.001046476629
       5       -0.000171568235     0.000036394646    -0.000260872534
       6       -0.000066917655    -0.000442823878    -0.000403942922
       7        0.000066938922    -0.000101823404     0.000066881419
       8        0.000030905452     0.000007983724     0.000138293354
       9       -0.000218265093     0.000514398208     0.000074827124
      10       -0.000269440203     0.000139382663    -0.000114202789
      11        0.000226132767    -0.000330521197     0.000133284086
      12       -0.000307473201     0.000391019645     0.000279055296
      13        0.000095370358    -0.000329721997    -0.000461078701
      14        0.000235535438     0.000159331649     0.000340953373


*** tstop() called on Davids-iMac.local at Wed Nov  8 16:47:56 2017
Module time:
	user time   =       4.77 seconds =       0.08 minutes
	system time =       0.15 seconds =       0.00 minutes
	total time  =          5 seconds =       0.08 minutes
Total time:
	user time   =      10.10 seconds =       0.17 minutes
	system time =       0.33 seconds =       0.01 minutes
	total time  =         11 seconds =       0.18 minutes

			-----------------------------------------
			 OPTKING 2.0: for geometry optimizations 
			  - R.A. King,  Bethel University        
			-----------------------------------------

	Previous internal coordinate definitions found.
	---Fragment 1 Geometry and Gradient---
	 C          -1.1669879613       -2.6307102061       -1.3100549572
	 C          -0.4012547581        3.1338382039       -0.1311507175
	 C           1.1261084108       -1.4812308988        0.0315424991
	 C           0.5484040147        0.9440629710        1.5072905969
	 H          -1.9226572003       -1.3617921618       -2.7829365164
	 H          -0.6679487706       -4.4345351673       -2.2364936937
	 H          -2.7020426743       -3.0185826125        0.0526496978
	 H           0.9649153587        3.5650092186       -1.6511612608
	 H          -0.6555394044        4.8667548322        1.0058738417
	 H          -2.2360773403        2.6990392547       -1.0226366080
	 H           1.9307615530       -2.8959667620        1.3445202636
	 H           2.6205652200       -1.0720176172       -1.3735660027
	 H          -0.8726709763        0.5115087281        2.9799772495
	 H           2.2753590511        1.5458899022        2.5213400490
	            -0.0014002196       -0.0004022983       -0.0008699739
	            -0.0007471337        0.0011610845       -0.0011591456
	             0.0010090628       -0.0007680604        0.0011894451
	             0.0015170720       -0.0000343458        0.0010464766
	            -0.0001715682        0.0000363946       -0.0002608725
	            -0.0000669177       -0.0004428239       -0.0004039429
	             0.0000669389       -0.0001018234        0.0000668814
	             0.0000309055        0.0000079837        0.0001382934
	            -0.0002182651        0.0005143982        0.0000748271
	            -0.0002694402        0.0001393827       -0.0001142028
	             0.0002261328       -0.0003305212        0.0001332841
	            -0.0003074732        0.0003910196        0.0002790553
	             0.0000953704       -0.0003297220       -0.0004610787
	             0.0002355354        0.0001593316        0.0003409534

	---Fragment 1 Intrafragment Coordinates---
	 - Coordinate -           - BOHR/RAD -       - ANG/DEG -
	 R(1,3)           =         2.894733	       1.531827
	 R(1,5)           =         2.085802	       1.103759
	 R(1,6)           =         2.088328	       1.105096
	 R(1,7)           =         2.088972	       1.105436
	 R(2,4)           =         2.895075	       1.532008
	 R(2,8)           =         2.088722	       1.105304
	 R(2,9)           =         2.088178	       1.105016
	 R(2,10)          =         2.085754	       1.103734
	 R(3,4)           =         2.897175	       1.533119
	 R(3,11)          =         2.091137	       1.106582
	 R(3,12)          =         2.091695	       1.106877
	 R(4,13)          =         2.091737	       1.106899
	 R(4,14)          =         2.091140	       1.106584
	 B(1,3,4)         =         1.993835	     114.238309
	 B(1,3,11)        =         1.904099	     109.096821
	 B(1,3,12)        =         1.909570	     109.410276
	 B(2,4,3)         =         1.993597	     114.224705
	 B(2,4,13)        =         1.909231	     109.390885
	 B(2,4,14)        =         1.904615	     109.126380
	 B(3,1,5)         =         1.952702	     111.881607
	 B(3,1,6)         =         1.938314	     111.057209
	 B(3,1,7)         =         1.932117	     110.702140
	 B(3,4,13)        =         1.897565	     108.722447
	 B(3,4,14)        =         1.899965	     108.860003
	 B(4,2,8)         =         1.932036	     110.697521
	 B(4,2,9)         =         1.938511	     111.068492
	 B(4,2,10)        =         1.952798	     111.887073
	 B(4,3,11)        =         1.899959	     108.859610
	 B(4,3,12)        =         1.897445	     108.715585
	 B(5,1,6)         =         1.874221	     107.384932
	 B(5,1,7)         =         1.883229	     107.901091
	 B(6,1,7)         =         1.880328	     107.734878
	 B(8,2,9)         =         1.880303	     107.733432
	 B(8,2,10)        =         1.883226	     107.900918
	 B(9,2,10)        =         1.874025	     107.373734
	 B(11,3,12)       =         1.853771	     106.213269
	 B(13,4,14)       =         1.853716	     106.210085
	 D(1,3,4,2)       =        -1.082313	     -62.011989
	 D(1,3,4,13)      =         1.055244	      60.461046
	 D(1,3,4,14)      =         3.067494	     175.754441
	 D(2,4,3,11)      =         3.068003	     175.783641
	 D(2,4,3,12)      =         1.055756	      60.490374
	 D(3,4,2,8)       =        -0.982633	     -56.300735
	 D(3,4,2,9)       =        -3.070664	    -175.936108
	 D(3,4,2,10)      =         1.118571	      64.089408
	 D(4,3,1,5)       =         1.111885	      63.706294
	 D(4,3,1,6)       =        -3.077302	    -176.316411
	 D(4,3,1,7)       =        -0.989315	     -56.683561
	 D(5,1,3,11)      =        -3.040698	    -174.219182
	 D(5,1,3,12)      =        -1.019561	     -58.416521
	 D(6,1,3,11)      =        -0.946700	     -54.241888
	 D(6,1,3,12)      =         1.074438	      61.560774
	 D(7,1,3,11)      =         1.141288	      65.390963
	 D(7,1,3,12)      =        -3.120760	    -178.806376
	 D(8,2,4,13)      =        -3.113814	    -178.408381
	 D(8,2,4,14)      =         1.148200	      65.787019
	 D(9,2,4,13)      =         1.081340	      61.956246
	 D(9,2,4,14)      =        -0.939831	     -53.848354
	 D(10,2,4,13)     =        -1.012609	     -58.018237
	 D(10,2,4,14)     =        -3.033781	    -173.822838
	 D(11,3,4,13)     =        -1.077624	     -61.743324
	 D(11,3,4,14)     =         0.934625	      53.550071
	 D(12,3,4,13)     =        -3.089871	    -177.036591
	 D(12,3,4,14)     =        -1.077622	     -61.743195

	Current energy   :      -157.6751093029

	Energy change for the previous step:
		Projected    :        -0.0025736084
		Actual       :        -0.0009142648

	Performing BFGS update.
	Previous computed or guess Hessian on step 1.
	Steps to be used in Hessian update: 1
	Taking RFO optimization step.
	Going to follow RFO solution 1.
	Using RFO vector 1.
	Norm of target step-size    0.06796
	Projected energy change by RFO approximation:        -0.0001286889

	Back-transformation to cartesian coordinates...
	Successfully converged to displaced geometry.

	--- Internal Coordinate Step in ANG or DEG, aJ/ANG or AJ/DEG ---
	 ---------------------------------------------------------------------------
	   Coordinate                Previous        Force       Change         New 
	   ----------                --------       ------       ------       ------
	    1 R(1,3)          =      1.531827    -0.018842    -0.003318     1.528509
	    2 R(1,5)          =      1.103759    -0.002212    -0.000118     1.103641
	    3 R(1,6)          =      1.105096    -0.004496    -0.000503     1.104592
	    4 R(1,7)          =      1.105436    -0.000110     0.000245     1.105681
	    5 R(2,4)          =      1.532008    -0.019556    -0.003459     1.528548
	    6 R(2,8)          =      1.105304     0.000649     0.000384     1.105688
	    7 R(2,9)          =      1.105016    -0.004072    -0.000426     1.104590
	    8 R(2,10)         =      1.103734    -0.002116    -0.000100     1.103634
	    9 R(3,4)          =      1.533119    -0.009540    -0.001778     1.531341
	   10 R(3,11)         =      1.106582    -0.003249    -0.000288     1.106295
	   11 R(3,12)         =      1.106877     0.002724     0.000726     1.107603
	   12 R(4,13)         =      1.106899     0.002647     0.000711     1.107611
	   13 R(4,14)         =      1.106584    -0.003343    -0.000306     1.106278
	   14 B(1,3,4)        =    114.238309    -0.000038    -0.091610   114.146699
	   15 B(1,3,11)       =    109.096821     0.000012    -0.113281   108.983540
	   16 B(1,3,12)       =    109.410276     0.000001     0.109234   109.519511
	   17 B(2,4,3)        =    114.224705    -0.000036    -0.082533   114.142172
	   18 B(2,4,13)       =    109.390885     0.000002     0.124883   109.515768
	   19 B(2,4,14)       =    109.126380     0.000008    -0.137029   108.989351
	   20 B(3,1,5)        =    111.881607    -0.000014    -0.063162   111.818445
	   21 B(3,1,6)        =    111.057209    -0.000023    -0.059208   110.998001
	   22 B(3,1,7)        =    110.702140     0.000012     0.036517   110.738657
	   23 B(3,4,13)       =    108.722447     0.000042     0.336934   109.059381
	   24 B(3,4,14)       =    108.860003    -0.000006    -0.190771   108.669233
	   25 B(4,2,8)        =    110.697521     0.000013     0.045410   110.742931
	   26 B(4,2,9)        =    111.068492    -0.000025    -0.070922   110.997570
	   27 B(4,2,10)       =    111.887073    -0.000016    -0.066877   111.820196
	   28 B(4,3,11)       =    108.859610    -0.000007    -0.191425   108.668185
	   29 B(4,3,12)       =    108.715585     0.000044     0.340470   109.056055
	   30 B(5,1,6)        =    107.384932     0.000020     0.076179   107.461110
	   31 B(5,1,7)        =    107.901091    -0.000000    -0.022949   107.878142
	   32 B(6,1,7)        =    107.734878     0.000008     0.037972   107.772850
	   33 B(8,2,9)        =    107.733432     0.000008     0.038653   107.772085
	   34 B(8,2,10)       =    107.900918    -0.000000    -0.024830   107.876088
	   35 B(9,2,10)       =    107.373734     0.000022     0.084264   107.457998
	   36 B(11,3,12)      =    106.213269    -0.000010    -0.053580   106.159689
	   37 B(13,4,14)      =    106.210085    -0.000009    -0.052105   106.157980
	   38 D(1,3,4,2)      =    -62.011989    -0.000004    -1.168972   -63.180961
	   39 D(1,3,4,13)     =     60.461046    -0.000002    -0.810632    59.650414
	   40 D(1,3,4,14)     =    175.754441    -0.000000    -0.794142   174.960299
	   41 D(2,4,3,11)     =    175.783641    -0.000001    -0.818147   174.965494
	   42 D(2,4,3,12)     =     60.490374    -0.000003    -0.834438    59.655936
	   43 D(3,4,2,8)      =    -56.300735     0.000005     0.747112   -55.553622
	   44 D(3,4,2,9)      =   -175.936108     0.000005     0.715115  -175.220993
	   45 D(3,4,2,10)     =     64.089408     0.000005     0.701701    64.791109
	   46 D(4,3,1,5)      =     63.706294     0.000005     1.155220    64.861514
	   47 D(4,3,1,6)      =   -176.316411     0.000005     1.168892  -175.147519
	   48 D(4,3,1,7)      =    -56.683561     0.000005     1.201844   -55.481717
	   49 D(5,1,3,11)     =   -174.219182    -0.000001     0.760614  -173.458569
	   50 D(5,1,3,12)     =    -58.416521    -0.000002     0.693672   -57.722849
	   51 D(6,1,3,11)     =    -54.241888    -0.000001     0.774285   -53.467602
	   52 D(6,1,3,12)     =     61.560774    -0.000002     0.707343    62.268117
	   53 D(7,1,3,11)     =     65.390963    -0.000001     0.807238    66.198200
	   54 D(7,1,3,12)     =   -178.806376    -0.000002     0.740296  -178.066080
	   55 D(8,2,4,13)     =   -178.408381    -0.000002     0.272096  -178.136284
	   56 D(8,2,4,14)     =     65.787019    -0.000001     0.341840    66.128859
	   57 D(9,2,4,13)     =     61.956246    -0.000003     0.240099    62.196345
	   58 D(9,2,4,14)     =    -53.848354    -0.000002     0.309842   -53.538512
	   59 D(10,2,4,13)    =    -58.018237    -0.000002     0.226685   -57.791553
	   60 D(10,2,4,14)    =   -173.822838    -0.000001     0.296428  -173.526410
	   61 D(11,3,4,13)    =    -61.743324     0.000002    -0.459806   -62.203131
	   62 D(11,3,4,14)    =     53.550071     0.000004    -0.443317    53.106754
	   63 D(12,3,4,13)    =   -177.036591    -0.000000    -0.476098  -177.512689
	   64 D(12,3,4,14)    =    -61.743195     0.000002    -0.459609   -62.202804
	 ---------------------------------------------------------------------------
	Successfully symmetrized geometry.

  ==> Convergence Check <==

  Measures of convergence in internal coordinates in au.
  Criteria marked as inactive (o), active & met (*), and active & unmet ( ).
  ---------------------------------------------------------------------------------------------
   Step     Total Energy     Delta E     MAX Force     RMS Force      MAX Disp      RMS Disp   
  ---------------------------------------------------------------------------------------------
    Convergence Criteria    1.00e-06 *    3.00e-04 *             o    1.20e-03 *             o
  ---------------------------------------------------------------------------------------------
      2    -157.67510930   -9.14e-04      2.37e-03      4.98e-04 o    2.10e-02      8.50e-03 o  ~
  ---------------------------------------------------------------------------------------------

	Writing optimization data to binary file.
	Structure for next step:
	Cartesian Geometry (in Angstrom)
	    C    -0.6241439634  -1.3954174419  -0.6805070042
	    C    -0.2020582958   1.6592876916  -0.0767921497
	    C     0.5918098255  -0.7815921399   0.0130443770
	    C     0.2873249761   0.5010005474   0.7923074216
	    H    -1.0219425761  -0.7357974531  -1.4708742741
	    H    -0.3654594790  -2.3598622125  -1.1527916233
	    H    -1.4362943862  -1.5825160656   0.0460852633
	    H     0.5214046176   1.8757411330  -0.8844405610
	    H    -0.3240915355   2.5793969253   0.5220614774
	    H    -1.1764083799   1.4374705431  -0.5452438160
	    H     1.0223441338  -1.5254092413   0.7096532833
	    H     1.3785746262  -0.5705890423  -0.7374646426
	    H    -0.4668299444   0.2796426173   1.5727254827
	    H     1.2024193471   0.8151105363   1.3287659323
			--------------------------
			 OPTKING Finished Execution 
			--------------------------

    Structure for next step:
    Molecular point group: c1
    Full point group: C1

    Geometry (in Angstrom), charge = 0, multiplicity = 1:

    C           -0.623518828237    -1.395661936619    -0.679823840841
    C           -0.201433160598     1.659043196865    -0.076108986350
    C            0.592434960722    -0.781836634679     0.013727540362
    C            0.287950111260     0.500756052621     0.792990584968
    H           -1.021317440891    -0.736041947883    -1.470191110748
    H           -0.364834343764    -2.360106707269    -1.152108459926
    H           -1.435669251023    -1.582760560343     0.046768426638
    H            0.522029752780     1.875496638241    -0.883757397640
    H           -0.323466400327     2.579152430565     0.522744640718
    H           -1.175783244693     1.437226048320    -0.544560652606
    H            1.022969268970    -1.525653736052     0.710336446608
    H            1.379199761408    -0.570833537014    -0.736781479257
    H           -0.466204809228     0.279398122528     1.573408646017
    H            1.203044482331     0.814866041551     1.329449095611

gradient() will perform analytic gradient computation.

*** tstart() called on Davids-iMac.local
*** at Wed Nov  8 16:47:56 2017

    SCF Algorithm Type (re)set to DF.

*** tstart() called on Davids-iMac.local
*** at Wed Nov  8 16:47:56 2017

   => Loading Basis Set <=

    Name: DEF2-SV(P)
    Role: ORBITAL
    Keyword: BASIS
    atoms 1-4  entry C          line    88 file /Users/bannanc/anaconda3/share/psi4/basis/def2-sv_p_.gbs 
    atoms 5-14 entry H          line    15 file /Users/bannanc/anaconda3/share/psi4/basis/def2-sv_p_.gbs 


         ---------------------------------------------------------
                                   SCF
            by Justin Turney, Rob Parrish, Andy Simmonett
                             and Daniel Smith
                              RHF Reference
                        1 Threads,   4768 MiB Core
         ---------------------------------------------------------

  ==> Geometry <==

    Molecular point group: c1
    Full point group: C1

    Geometry (in Angstrom), charge = 0, multiplicity = 1:

       Center              X                  Y                   Z               Mass       
    ------------   -----------------  -----------------  -----------------  -----------------
           C         -0.623518828237    -1.395661936619    -0.679823840841    12.000000000000
           C         -0.201433160598     1.659043196865    -0.076108986350    12.000000000000
           C          0.592434960722    -0.781836634679     0.013727540362    12.000000000000
           C          0.287950111260     0.500756052621     0.792990584968    12.000000000000
           H         -1.021317440891    -0.736041947883    -1.470191110748     1.007825032070
           H         -0.364834343764    -2.360106707269    -1.152108459926     1.007825032070
           H         -1.435669251023    -1.582760560343     0.046768426638     1.007825032070
           H          0.522029752780     1.875496638241    -0.883757397640     1.007825032070
           H         -0.323466400327     2.579152430565     0.522744640718     1.007825032070
           H         -1.175783244693     1.437226048320    -0.544560652606     1.007825032070
           H          1.022969268970    -1.525653736052     0.710336446608     1.007825032070
           H          1.379199761408    -0.570833537014    -0.736781479257     1.007825032070
           H         -0.466204809228     0.279398122528     1.573408646017     1.007825032070
           H          1.203044482331     0.814866041551     1.329449095611     1.007825032070

  Running in c1 symmetry.

  Rotational constants: A =      0.43833  B =      0.15907  C =      0.13511 [cm^-1]
  Rotational constants: A =  13140.86240  B =   4768.68091  C =   4050.40026 [MHz]
  Nuclear repulsion =  132.015168411063399

  Charge       = 0
  Multiplicity = 1
  Electrons    = 34
  Nalpha       = 17
  Nbeta        = 17

  ==> Algorithm <==

  SCF Algorithm Type is DF.
  DIIS enabled.
  MOM disabled.
  Fractional occupation disabled.
  Guess Type is READ.
  Energy threshold   = 1.00e-10
  Density threshold  = 1.00e-10
  Integral threshold = 0.00e+00

  ==> Primary Basis <==

  Basis Set: DEF2-SV(P)
    Blend: DEF2-SV(P)
    Number of shells: 44
    Number of basis function: 76
    Number of Cartesian functions: 80
    Spherical Harmonics?: true
    Max angular momentum: 2

   => Loading Basis Set <=

    Name: (DEF2-SV(P) AUX)
    Role: JKFIT
    Keyword: DF_BASIS_SCF
    atoms 1-4  entry C          line   203 file /Users/bannanc/anaconda3/share/psi4/basis/def2-sv_p_-jkfit.gbs 
    atoms 5-14 entry H          line    23 file /Users/bannanc/anaconda3/share/psi4/basis/def2-sv_p_-jkfit.gbs 

  Reading orbitals from file 180, no projection.

  ==> Pre-Iterations <==

   -------------------------------------------------------
    Irrep   Nso     Nmo     Nalpha   Nbeta   Ndocc  Nsocc
   -------------------------------------------------------
     A         76      76       0       0       0       0
   -------------------------------------------------------
    Total      76      76      17      17      17       0
   -------------------------------------------------------

  ==> Integral Setup <==

  ==> DFJK: Density-Fitted J/K Matrices <==

    J tasked:                  Yes
    K tasked:                  Yes
    wK tasked:                  No
    OpenMP threads:              1
    Integrals threads:           1
    Memory (MB):              3576
    Algorithm:                Core
    Integral Cache:           NONE
    Schwarz Cutoff:          1E-12
    Fitting Condition:       1E-12

   => Auxiliary Basis Set <=

  Basis Set: (DEF2-SV(P) AUX)
    Blend: DEF2-SV_P_-JKFIT
    Number of shells: 160
    Number of basis function: 480
    Number of Cartesian functions: 556
    Spherical Harmonics?: true
    Max angular momentum: 4

  Minimum eigenvalue in the overlap matrix is 2.7268330707E-03.
  Using Symmetric Orthogonalization.

  SCF Guess: Orbitals guess was supplied from a previous computation.

  ==> Iterations <==

                           Total Energy        Delta E     RMS |[F,P]|

   @DF-RHF iter   0:  -157.16136644575448   -1.57161e+02   2.60540e-04 
   @DF-RHF iter   1:  -157.15876156571730    2.60488e-03   5.25732e-05 
   @DF-RHF iter   2:  -157.15877726633860   -1.57006e-05   1.74273e-05 DIIS
   @DF-RHF iter   3:  -157.15877941701953   -2.15068e-06   2.51289e-06 DIIS
   @DF-RHF iter   4:  -157.15877944640886   -2.93893e-08   6.69381e-07 DIIS
   @DF-RHF iter   5:  -157.15877944914138   -2.73252e-09   1.31833e-07 DIIS
   @DF-RHF iter   6:  -157.15877944924927   -1.07889e-10   2.37068e-08 DIIS
   @DF-RHF iter   7:  -157.15877944925285   -3.58114e-12   8.07490e-09 DIIS
   @DF-RHF iter   8:  -157.15877944925290   -5.68434e-14   1.42935e-09 DIIS
   @DF-RHF iter   9:  -157.15877944925296   -5.68434e-14   3.04296e-10 DIIS
   @DF-RHF iter  10:  -157.15877944925293    2.84217e-14   6.38950e-11 DIIS

  ==> Post-Iterations <==

    Orbital Energies (a.u.)
    -----------------------

    Doubly Occupied:                                                      

       1A    -11.219513     2A    -11.218978     3A    -11.214576  
       4A    -11.214557     5A     -1.060704     6A     -0.964725  
       7A     -0.862423     8A     -0.765850     9A     -0.625342  
      10A     -0.620979    11A     -0.574960    12A     -0.535912  
      13A     -0.534260    14A     -0.505932    15A     -0.463994  
      16A     -0.461733    17A     -0.460989  

    Virtual:                                                              

      18A      0.171848    19A      0.213038    20A      0.216407  
      21A      0.223735    22A      0.256369    23A      0.269952  
      24A      0.282409    25A      0.285492    26A      0.292139  
      27A      0.309482    28A      0.387137    29A      0.397227  
      30A      0.441465    31A      0.582564    32A      0.598796  
      33A      0.625542    34A      0.630582    35A      0.632100  
      36A      0.698577    37A      0.762325    38A      0.881160  
      39A      0.881596    40A      0.898715    41A      0.922066  
      42A      0.941345    43A      0.948590    44A      0.950728  
      45A      0.960664    46A      0.964648    47A      0.983117  
      48A      0.988443    49A      0.993484    50A      1.003994  
      51A      1.005236    52A      1.015881    53A      1.052319  
      54A      1.227734    55A      1.318112    56A      1.348282  
      57A      1.706192    58A      1.719056    59A      1.949921  
      60A      1.969532    61A      2.115808    62A      2.189573  
      63A      2.232125    64A      2.243206    65A      2.272870  
      66A      2.364280    67A      2.372885    68A      2.486481  
      69A      2.511771    70A      2.558413    71A      2.601165  
      72A      2.656072    73A      2.707745    74A      2.914180  
      75A      2.924735    76A      3.028904  

    Final Occupation by Irrep:
              A 
    DOCC [    17 ]

  Energy converged.

  @DF-RHF Final Energy:  -157.15877944925293

   => Energetics <=

    Nuclear Repulsion Energy =            132.0151684110633994
    One-Electron Energy =                -471.7370360692274289
    Two-Electron Energy =                 182.5630882089110685
    Total Energy =                       -157.1587794492529326



Properties will be evaluated at   0.000000,   0.000000,   0.000000 Bohr

Properties computed using the SCF density matrix

  Nuclear Dipole Moment: (a.u.)
     X:    -0.6188      Y:     0.1976      Z:    -0.5669

  Electronic Dipole Moment: (a.u.)
     X:     0.6331      Y:    -0.2022      Z:     0.5800

  Dipole Moment: (a.u.)
     X:     0.0143      Y:    -0.0046      Z:     0.0131     Total:     0.0200

  Dipole Moment: (Debye)
     X:     0.0365      Y:    -0.0117      Z:     0.0334     Total:     0.0508


*** tstop() called on Davids-iMac.local at Wed Nov  8 16:47:57 2017
Module time:
	user time   =       1.26 seconds =       0.02 minutes
	system time =       0.02 seconds =       0.00 minutes
	total time  =          1 seconds =       0.02 minutes
Total time:
	user time   =      11.38 seconds =       0.19 minutes
	system time =       0.35 seconds =       0.01 minutes
	total time  =         12 seconds =       0.20 minutes

  //>>>>>>>>>>>>>>>>>>>>>>>>>>>>>>>>>>>//
  //               DFMP2               //
  //<<<<<<<<<<<<<<<<<<<<<<<<<<<<<<<<<<<//

   => Loading Basis Set <=

    Name: DEF2-SV(P)-RI
    Role: RIFIT
    Keyword: DF_BASIS_MP2
    atoms 1-4  entry C          line   153 file /Users/bannanc/anaconda3/share/psi4/basis/def2-sv_p_-ri.gbs 
    atoms 5-14 entry H          line    22 file /Users/bannanc/anaconda3/share/psi4/basis/def2-sv_p_-ri.gbs 

	 --------------------------------------------------------
	                          DF-MP2                         
	      2nd-Order Density-Fitted Moller-Plesset Theory     
	              RMP2 Wavefunction,   1 Threads             
	                                                         
	        Rob Parrish, Justin Turney, Andy Simmonett,      
	           Ed Hohenstein, and C. David Sherrill          
	 --------------------------------------------------------

   => Auxiliary Basis Set <=

  Basis Set: DEF2-SV(P)-RI
    Blend: DEF2-SV(P)-RI
    Number of shells: 124
    Number of basis function: 332
    Number of Cartesian functions: 370
    Spherical Harmonics?: true
    Max angular momentum: 3

	 --------------------------------------------------------
	                 NBF =    76, NAUX =   332
	 --------------------------------------------------------
	   CLASS    FOCC     OCC    AOCC    AVIR     VIR    FVIR
	   PAIRS       4      17      13      59      59       0
	 --------------------------------------------------------


         ------------------------------------------------------------
                                     CPHF                           
                                  Rob Parrish                       
         ------------------------------------------------------------

  ==> Geometry <==

    Molecular point group: c1
    Full point group: C1

    Geometry (in Angstrom), charge = 0, multiplicity = 1:

       Center              X                  Y                   Z               Mass       
    ------------   -----------------  -----------------  -----------------  -----------------
           C         -0.623518828237    -1.395661936619    -0.679823840841    12.000000000000
           C         -0.201433160598     1.659043196865    -0.076108986350    12.000000000000
           C          0.592434960722    -0.781836634679     0.013727540362    12.000000000000
           C          0.287950111260     0.500756052621     0.792990584968    12.000000000000
           H         -1.021317440891    -0.736041947883    -1.470191110748     1.007825032070
           H         -0.364834343764    -2.360106707269    -1.152108459926     1.007825032070
           H         -1.435669251023    -1.582760560343     0.046768426638     1.007825032070
           H          0.522029752780     1.875496638241    -0.883757397640     1.007825032070
           H         -0.323466400327     2.579152430565     0.522744640718     1.007825032070
           H         -1.175783244693     1.437226048320    -0.544560652606     1.007825032070
           H          1.022969268970    -1.525653736052     0.710336446608     1.007825032070
           H          1.379199761408    -0.570833537014    -0.736781479257     1.007825032070
           H         -0.466204809228     0.279398122528     1.573408646017     1.007825032070
           H          1.203044482331     0.814866041551     1.329449095611     1.007825032070

  Nuclear repulsion =  132.015168411063399
  Reference energy  = -157.158779449252933

  ==> Basis Set <==

  Basis Set: DEF2-SV(P)
    Blend: DEF2-SV(P)
    Number of shells: 44
    Number of basis function: 76
    Number of Cartesian functions: 80
    Spherical Harmonics?: true
    Max angular momentum: 2

  ==> CGRSolver (by Rob Parrish) <==

   Number of roots    =         1
   Preconditioning    =    JACOBI
   Convergence cutoff =     1E-06
   Maximum iterations =       100

  ==> CPHFRHamiltonian (by Rob Parrish) <== 

[...]
    Number of shells: 160
    Number of basis function: 480
    Number of Cartesian functions: 556
    Spherical Harmonics?: true
    Max angular momentum: 4

  ==> CPHF Iterations <==

  => Iterations <=

             Iter  Converged  Remaining    Residual
  CGR           1          0          1   9.808E-02
  CGR           2          0          1   9.711E-03
  CGR           3          0          1   3.018E-03
  CGR           4          0          1   4.584E-04
  CGR           5          0          1   1.009E-04
  CGR           6          0          1   1.299E-05
  CGR           7          0          1   2.300E-06
  CGR           8          1          0   4.415E-07

    CGRSolver converged.

  ==> DFCorrGrad: Density-Fitted Correlated Gradients <==

    OpenMP threads:              1
    Integrals threads:           1
    Memory (MB):              3576
    Schwarz Cutoff:          0E+00
    Fitting Condition:       1E-12

   => Auxiliary Basis Set <=

  Basis Set: (DEF2-SV(P) AUX)
    Blend: DEF2-SV_P_-JKFIT
    Number of shells: 160
    Number of basis function: 480
    Number of Cartesian functions: 556
    Spherical Harmonics?: true
    Max angular momentum: 4

	-----------------------------------------------------------
	 ==================> DF-MP2 Energies <==================== 
	-----------------------------------------------------------
	 Reference Energy          =    -157.1587863042476556 [Eh]
	 Singles Energy            =      -0.0000000000000000 [Eh]
	 Same-Spin Energy          =      -0.1189482888264234 [Eh]
	 Opposite-Spin Energy      =      -0.3974088125077880 [Eh]
	 Correlation Energy        =      -0.5163571013342114 [Eh]
	 Total Energy              =    -157.6751434055818777 [Eh]
	-----------------------------------------------------------
	 ================> DF-SCS-MP2 Energies <================== 
	-----------------------------------------------------------
	 SCS Same-Spin Scale       =       0.3333333333333333 [-]
	 SCS Opposite-Spin Scale   =       1.2000000000000000 [-]
	 SCS Same-Spin Energy      =      -0.0396494296088078 [Eh]
	 SCS Opposite-Spin Energy  =      -0.4768905750093456 [Eh]
	 SCS Correlation Energy    =      -0.5165400046181534 [Eh]
	 SCS Total Energy          =    -157.6753263088658059 [Eh]
	-----------------------------------------------------------


  -Total Gradient:
     Atom            X                  Y                   Z
    ------   -----------------  -----------------  -----------------
       1       -0.000037328971    -0.000027318933    -0.000030118155
       2       -0.000017523054     0.000046126398    -0.000025793458
       3        0.000008756437     0.000042487482     0.000024484728
       4        0.000008819666    -0.000050422058    -0.000010159179
       5       -0.000006223175     0.000031700699    -0.000027218244
       6        0.000017378980    -0.000012278595     0.000001857241
       7       -0.000015477848    -0.000002608341     0.000032928906
       8        0.000029272133    -0.000002956840    -0.000014171908
       9        0.000004692793     0.000004838166     0.000018802169
      10       -0.000032721276    -0.000018935788    -0.000009171675
      11        0.000008914122    -0.000034098329     0.000031883776
      12        0.000025197117     0.000013817782    -0.000032084655
      13       -0.000036116717    -0.000009341182     0.000026299901
      14        0.000042359793     0.000018989539     0.000012460553


*** tstop() called on Davids-iMac.local at Wed Nov  8 16:48:11 2017
Module time:
	user time   =       4.77 seconds =       0.08 minutes
	system time =       0.14 seconds =       0.00 minutes
	total time  =          5 seconds =       0.08 minutes
Total time:
	user time   =      24.43 seconds =       0.41 minutes
	system time =       0.77 seconds =       0.01 minutes
	total time  =         26 seconds =       0.43 minutes

			-----------------------------------------
			 OPTKING 2.0: for geometry optimizations 
			  - R.A. King,  Bethel University        
			-----------------------------------------

	Previous internal coordinate definitions found.
	---Fragment 1 Geometry and Gradient---
	 C          -1.1773044241       -2.6286770000       -1.2890847783
	 C          -0.3875673171        3.1283205364       -0.1451169741
	 C           1.1198876143       -1.4805848403        0.0318262856
	 C           0.5504258656        0.9472738339        1.4990140619
	 H          -1.9206389186       -1.3760424716       -2.7813982125
	 H          -0.6930005267       -4.4501965426       -2.1848731351
	 H          -2.7177889600       -2.9804166729        0.0774304548
	 H           0.9720437863        3.5380777813       -1.6773295194
	 H          -0.6199983963        4.8692287235        0.9818843027
	 H          -2.2301591992        2.7012215394       -1.0232032985
	 H           1.9224496427       -2.8891124980        1.3516623806
	 H           2.6142281368       -1.0891967351       -1.3798497316
	 H          -0.8660639472        0.5310767017        2.9820631100
	 H           2.2834516635        1.5462329721        2.5029544531
	            -0.0000373290       -0.0000273189       -0.0000301182
	            -0.0000175231        0.0000461264       -0.0000257935
	             0.0000087564        0.0000424875        0.0000244847
	             0.0000088197       -0.0000504221       -0.0000101592
	            -0.0000062232        0.0000317007       -0.0000272182
	             0.0000173790       -0.0000122786        0.0000018572
	            -0.0000154778       -0.0000026083        0.0000329289
	             0.0000292721       -0.0000029568       -0.0000141719
	             0.0000046928        0.0000048382        0.0000188022
	            -0.0000327213       -0.0000189358       -0.0000091717
	             0.0000089141       -0.0000340983        0.0000318838
	             0.0000251971        0.0000138178       -0.0000320847
	            -0.0000361167       -0.0000093412        0.0000262999
	             0.0000423598        0.0000189895        0.0000124606

	---Fragment 1 Intrafragment Coordinates---
	 - Coordinate -           - BOHR/RAD -       - ANG/DEG -
	 R(1,3)           =         2.887908	       1.528215
	 R(1,5)           =         2.085339	       1.103514
	 R(1,6)           =         2.086845	       1.104311
	 R(1,7)           =         2.089061	       1.105484
	 R(2,4)           =         2.887899	       1.528211
	 R(2,8)           =         2.089047	       1.105476
	 R(2,9)           =         2.086844	       1.104310
	 R(2,10)          =         2.085328	       1.103508
	 R(3,4)           =         2.893341	       1.531090
	 R(3,11)          =         2.090460	       1.106224
	 R(3,12)          =         2.092622	       1.107368
	 R(4,13)          =         2.092629	       1.107372
	 R(4,14)          =         2.090461	       1.106224
	 B(1,3,4)         =         1.992126	     114.140410
	 B(1,3,11)        =         1.903185	     109.044495
	 B(1,3,12)        =         1.911161	     109.501440
	 B(2,4,3)         =         1.992115	     114.139799
	 B(2,4,13)        =         1.911156	     109.501192
	 B(2,4,14)        =         1.903171	     109.043668
	 B(3,1,5)         =         1.952026	     111.842829
	 B(3,1,6)         =         1.937714	     111.022856
	 B(3,1,7)         =         1.932975	     110.751314
	 B(3,4,13)        =         1.902560	     109.008664
	 B(3,4,14)        =         1.897359	     108.710643
	 B(4,2,8)         =         1.932975	     110.751309
	 B(4,2,9)         =         1.937732	     111.023877
	 B(4,2,10)        =         1.952002	     111.841471
	 B(4,3,11)        =         1.897363	     108.710869
	 B(4,3,12)        =         1.902535	     109.007214
	 B(5,1,6)         =         1.875337	     107.448874
	 B(5,1,7)         =         1.882199	     107.842048
	 B(6,1,7)         =         1.880689	     107.755525
	 B(8,2,9)         =         1.880691	     107.755671
	 B(8,2,10)        =         1.882209	     107.842618
	 B(9,2,10)        =         1.875331	     107.448530
	 B(11,3,12)       =         1.852279	     106.127758
	 B(13,4,14)       =         1.852288	     106.128303
	 D(1,3,4,2)       =        -1.089127	     -62.402376
	 D(1,3,4,13)      =         1.053657	      60.370072
	 D(1,3,4,14)      =         3.065495	     175.639925
	 D(2,4,3,11)      =         3.065466	     175.638276
	 D(2,4,3,12)      =         1.053651	      60.369727
	 D(3,4,2,8)       =        -0.972932	     -55.744906
	 D(3,4,2,9)       =        -3.061559	    -175.414405
	 D(3,4,2,10)      =         1.127088	      64.577376
	 D(4,3,1,5)       =         1.127272	      64.587938
	 D(4,3,1,6)       =        -3.061363	    -175.403188
	 D(4,3,1,7)       =        -0.972751	     -55.734538
	 D(5,1,3,11)      =        -3.030524	    -173.636225
	 D(5,1,3,12)      =        -1.010801	     -57.914611
	 D(6,1,3,11)      =        -0.935974	     -53.627350
	 D(6,1,3,12)      =         1.083749	      62.094263
	 D(7,1,3,11)      =         1.152638	      66.041299
	 D(7,1,3,12)      =        -3.110824	    -178.237088
	 D(8,2,4,13)      =        -3.111027	    -178.248726
	 D(8,2,4,14)      =         1.152434	      66.029609
	 D(9,2,4,13)      =         1.083531	      62.081775
	 D(9,2,4,14)      =        -0.936193	     -53.639890
	 D(10,2,4,13)     =        -1.011007	     -57.926444
	 D(10,2,4,14)     =        -3.030731	    -173.648109
	 D(11,3,4,13)     =        -1.074936	     -61.589275
	 D(11,3,4,14)     =         0.936903	      53.680578
	 D(12,3,4,13)     =        -3.086751	    -176.857825
	 D(12,3,4,14)     =        -1.074913	     -61.587972

	Current energy   :      -157.6751434056

	Energy change for the previous step:
		Projected    :        -0.0000468071
		Actual       :        -0.0000077921
	Energy ratio indicates iffy step: Trust radius decreased to 3.125e-02.


	Performing BFGS update.
	Previous computed or guess Hessian on step 1.
	Steps to be used in Hessian update: 4 3
	Taking RFO optimization step.
	Going to follow RFO solution 1.
	Using RFO vector 1.
	Norm of target step-size    0.00115
	Projected energy change by RFO approximation:         0.0000000096

	Back-transformation to cartesian coordinates...
	Successfully converged to displaced geometry.

	--- Internal Coordinate Step in ANG or DEG, aJ/ANG or AJ/DEG ---
	 ---------------------------------------------------------------------------
	   Coordinate                Previous        Force       Change         New 
	   ----------                --------       ------       ------       ------
	    1 R(1,3)          =      1.528215    -0.000392    -0.000092     1.528124
	    2 R(1,5)          =      1.103514    -0.000336    -0.000061     1.103453
	    3 R(1,6)          =      1.104311    -0.000115    -0.000024     1.104287
	    4 R(1,7)          =      1.105484    -0.000275    -0.000052     1.105432
	    5 R(2,4)          =      1.528211    -0.000367    -0.000087     1.528124
	    6 R(2,8)          =      1.105476    -0.000238    -0.000044     1.105432
	    7 R(2,9)          =      1.104310    -0.000113    -0.000023     1.104287
	    8 R(2,10)         =      1.103508    -0.000302    -0.000055     1.103454
	    9 R(3,4)          =      1.531090     0.000086     0.000012     1.531102
	   10 R(3,11)         =      1.106224    -0.000383    -0.000071     1.106153
	   11 R(3,12)         =      1.107368    -0.000348    -0.000064     1.107304
	   12 R(4,13)         =      1.107372    -0.000370    -0.000068     1.107303
	   13 R(4,14)         =      1.106224    -0.000383    -0.000071     1.106153
	   14 B(1,3,4)        =    114.140410     0.000001     0.003637   114.144047
	   15 B(1,3,11)       =    109.044495    -0.000000     0.002048   109.046544
	   16 B(1,3,12)       =    109.501440    -0.000000     0.000993   109.502433
	   17 B(2,4,3)        =    114.139799     0.000001     0.004069   114.143867
	   18 B(2,4,13)       =    109.501192    -0.000000     0.001254   109.502445
	   19 B(2,4,14)       =    109.043668     0.000000     0.003085   109.046753
	   20 B(3,1,5)        =    111.842829     0.000001     0.002158   111.844987
	   21 B(3,1,6)        =    111.022856     0.000001     0.007467   111.030322
	   22 B(3,1,7)        =    110.751314     0.000001     0.006047   110.757362
	   23 B(3,4,13)       =    109.008664    -0.000000    -0.001128   109.007537
	   24 B(3,4,14)       =    108.710643    -0.000000    -0.000915   108.709729
	   25 B(4,2,8)        =    110.751309     0.000001     0.005978   110.757287
	   26 B(4,2,9)        =    111.023877     0.000001     0.006431   111.030308
	   27 B(4,2,10)       =    111.841471     0.000001     0.003492   111.844963
	   28 B(4,3,11)       =    108.710869    -0.000000    -0.001005   108.709864
	   29 B(4,3,12)       =    109.007214    -0.000000     0.000252   109.007465
	   30 B(5,1,6)        =    107.448874    -0.000001    -0.006007   107.442867
	   31 B(5,1,7)        =    107.842048    -0.000001    -0.006782   107.835266
	   32 B(6,1,7)        =    107.755525    -0.000001    -0.003815   107.751709
	   33 B(8,2,9)        =    107.755671    -0.000001    -0.003948   107.751723
	   34 B(8,2,10)       =    107.842618    -0.000001    -0.007207   107.835411
	   35 B(9,2,10)       =    107.448530    -0.000001    -0.005701   107.442828
	   36 B(11,3,12)      =    106.127758    -0.000000    -0.006725   106.121034
	   37 B(13,4,14)      =    106.128303    -0.000000    -0.007234   106.121069
	   38 D(1,3,4,2)      =    -62.402376    -0.000000    -0.012477   -62.414853
	   39 D(1,3,4,13)     =     60.370072     0.000000    -0.008858    60.361215
	   40 D(1,3,4,14)     =    175.639925    -0.000000    -0.018539   175.621386
	   41 D(2,4,3,11)     =    175.638276    -0.000000    -0.016843   175.621434
	   42 D(2,4,3,12)     =     60.369727     0.000000    -0.008457    60.361270
	   43 D(3,4,2,8)      =    -55.744906     0.000000     0.000830   -55.744075
	   44 D(3,4,2,9)      =   -175.414405    -0.000000    -0.002360  -175.416765
	   45 D(3,4,2,10)     =     64.577376     0.000000    -0.001874    64.575503
	   46 D(4,3,1,5)      =     64.587938     0.000000    -0.011941    64.575997
	   47 D(4,3,1,6)      =   -175.403188    -0.000000    -0.013008  -175.416195
	   48 D(4,3,1,7)      =    -55.734538     0.000000    -0.008926   -55.743464
	   49 D(5,1,3,11)     =   -173.636225     0.000000    -0.009235  -173.645459
	   50 D(5,1,3,12)     =    -57.914611    -0.000000    -0.015587   -57.930198
	   51 D(6,1,3,11)     =    -53.627350     0.000000    -0.010301   -53.637652
	   52 D(6,1,3,12)     =     62.094263    -0.000000    -0.016653    62.077610
	   53 D(7,1,3,11)     =     66.041299     0.000000    -0.006220    66.035079
	   54 D(7,1,3,12)     =   -178.237088    -0.000000    -0.012572  -178.249659
	   55 D(8,2,4,13)     =   -178.248726    -0.000000    -0.001520  -178.250246
	   56 D(8,2,4,14)     =     66.029609     0.000000     0.004717    66.034326
	   57 D(9,2,4,13)     =     62.081775    -0.000000    -0.004710    62.077065
	   58 D(9,2,4,14)     =    -53.639890     0.000000     0.001527   -53.638363
	   59 D(10,2,4,13)    =    -57.926444    -0.000000    -0.004224   -57.930668
	   60 D(10,2,4,14)    =   -173.648109     0.000000     0.002013  -173.646096
	   61 D(11,3,4,13)    =    -61.589275    -0.000000    -0.013224   -61.602499
	   62 D(11,3,4,14)    =     53.680578    -0.000000    -0.022905    53.657673
	   63 D(12,3,4,13)    =   -176.857825     0.000000    -0.004838  -176.862663
	   64 D(12,3,4,14)    =    -61.587972    -0.000000    -0.014520   -61.602492
	 ---------------------------------------------------------------------------
	Successfully symmetrized geometry.

  ==> Convergence Check <==

  Measures of convergence in internal coordinates in au.
  Criteria marked as inactive (o), active & met (*), and active & unmet ( ).
  ---------------------------------------------------------------------------------------------
   Step     Total Energy     Delta E     MAX Force     RMS Force      MAX Disp      RMS Disp   
  ---------------------------------------------------------------------------------------------
    Convergence Criteria    1.00e-06 *    3.00e-04 *             o    1.20e-03 *             o
  ---------------------------------------------------------------------------------------------
      5    -157.67514341   -7.79e-06      4.76e-05 *    1.81e-05 o    4.00e-04 *    1.44e-04 o  ~
  ---------------------------------------------------------------------------------------------


  **** Optimization is complete! (in 5 steps) ****

  ==> Optimization Summary <==

  Measures of convergence in internal coordinates in au.
  --------------------------------------------------------------------------------------------------------------- ~
   Step         Total Energy             Delta E       MAX Force       RMS Force        MAX Disp        RMS Disp  ~
  --------------------------------------------------------------------------------------------------------------- ~
      1    -157.674195038141   -157.674195038141      0.00700752      0.00300099      0.04810782      0.01728583  ~
      2    -157.675109302894     -0.000914264753      0.00237371      0.00049833      0.02097613      0.00849567  ~
      3    -157.675138923987     -0.000029621093      0.00023449      0.00010201      0.03181232      0.01176610  ~
      4    -157.675135613445      0.000003310542      0.00043681      0.00014517      0.01931179      0.00716878  ~
      5    -157.675143405582     -0.000007792137      0.00004762      0.00001807      0.00039977      0.00014359  ~
  --------------------------------------------------------------------------------------------------------------- ~

	Writing optimization data to binary file.
	Final energy is   -157.6751434055819
	Final (previous) structure:
	Cartesian Geometry (in Angstrom)
	    C    -0.6230026688  -1.3910359572  -0.6821542846
	    C    -0.2050917910   1.6554359290  -0.0767925953
	    C     0.5926190017  -0.7834917529   0.0168417450
	    C     0.2912728231   0.5012757232   0.7932440769
	    H    -1.0163583417  -0.7281703140  -1.4718525421
	    H    -0.3667200843  -2.3549425841  -1.1561850667
	    H    -1.4381919754  -1.5771685754   0.0409744319
	    H     0.5143834175   1.8722701241  -0.8876045529
	    H    -0.3280890207   2.5766848639   0.5195907944
	    H    -1.1801494197   1.4294248740  -0.5414558653
	    H     1.0173165356  -1.5288524870   0.7152689255
	    H     1.3833899481  -0.5763780879  -0.7301850293
	    H    -0.4583013020   0.2810336866   1.5780398324
	    H     1.2083505773   0.8182312480   1.3245064507
	Saving final (previous) structure.
	Removing binary optimization data file.
			--------------------------
			 OPTKING Finished Execution 
			--------------------------

    Final optimized geometry and variables:
    Molecular point group: c1
    Full point group: C1

    Geometry (in Angstrom), charge = 0, multiplicity = 1:

    C           -0.623002668820    -1.391035957153    -0.682154284630
    C           -0.205091790977     1.655435929037    -0.076792595256
    C            0.592619001658    -0.783491752856     0.016841744956
    C            0.291272823087     0.501275723169     0.793244076924
    H           -1.016358341666    -0.728170314048    -1.471852542088
    H           -0.366720084275    -2.354942584095    -1.156185066749
    H           -1.438191975414    -1.577168575397     0.040974431915
    H            0.514383417460     1.872270124091    -0.887604552940
    H           -0.328089020672     2.576684863874     0.519590794448
    H           -1.180149419739     1.429424873978    -0.541455865333
    H            1.017316535595    -1.528852486991     0.715268925516
    H            1.383389948063    -0.576378087910    -0.730185029264
    H           -0.458301302044     0.281033686561     1.578039832387
    H            1.208350577267     0.818231248022     1.324506450729

	Removing binary optimization data file.
	Cleaning optimization helper files.

*** Psi4 exiting successfully. Buy a developer a beer!
