
    -----------------------------------------------------------------------
          Psi4: An Open-Source Ab Initio Electronic Structure Package
                               Psi4 1.2a1.dev609 

                         Git: Rev {master} 22d37b8 


    R. M. Parrish, L. A. Burns, D. G. A. Smith, A. C. Simmonett,
    A. E. DePrince III, E. G. Hohenstein, U. Bozkaya, A. Yu. Sokolov,
    R. Di Remigio, R. M. Richard, J. F. Gonthier, A. M. James,
    H. R. McAlexander, A. Kumar, M. Saitow, X. Wang, B. P. Pritchard,
    P. Verma, H. F. Schaefer III, K. Patkowski, R. A. King, E. F. Valeev,
    F. A. Evangelista, J. M. Turney, T. D. Crawford, and C. D. Sherrill,
    J. Chem. Theory Comput. 13(7) pp 3185--3197 (2017).
    (doi: 10.1021/acs.jctc.7b00174)

    -----------------------------------------------------------------------


    Psi4 started on: Wednesday, 08 November 2017 04:48PM

    Process ID:   1317
    PSIDATADIR: /Users/bannanc/anaconda3/share/psi4
    Memory:     500.0 MiB
    Threads:    1
    
  ==> Input File <==

--------------------------------------------------------------------------
memory 5.0 Gb
molecule butane_3 {
  0 1
  C     0.4216    -0.7655      0.6578
  C     0.2496     0.8834      3.2933
  C     1.6069    -0.1960      1.4221
  C     1.2786     1.0839      2.1914
  H    -0.0110    -0.0164     -0.0127
  H     0.7407    -1.6194      0.0516
  H    -0.3612    -1.1166      1.3367
  H    -0.7260     0.6038      2.8849
  H     0.1178     1.8123      3.8574
  H     0.5691     0.1045      3.9926
  H     1.9947    -0.9558      2.1105
  H     2.4097     0.0240      0.7081
  H     2.2027     1.4659      2.6417
  H     0.9226     1.8541      1.4975
  units angstrom
}

set basis def2-sv(p)
set df_basis_mp2 def2-sv(p)-ri
set freeze_core True
optimize('mp2')--------------------------------------------------------------------------

  Memory set to   4.657 GiB by Python driver.
gradient() will perform analytic gradient computation.

*** tstart() called on Davids-iMac.local
*** at Wed Nov  8 16:48:24 2017

    SCF Algorithm Type (re)set to DF.

*** tstart() called on Davids-iMac.local
*** at Wed Nov  8 16:48:24 2017

   => Loading Basis Set <=

    Name: DEF2-SV(P)
    Role: ORBITAL
    Keyword: BASIS
    atoms 1-4  entry C          line    88 file /Users/bannanc/anaconda3/share/psi4/basis/def2-sv_p_.gbs 
    atoms 5-14 entry H          line    15 file /Users/bannanc/anaconda3/share/psi4/basis/def2-sv_p_.gbs 


         ---------------------------------------------------------
                                   SCF
            by Justin Turney, Rob Parrish, Andy Simmonett
                             and Daniel Smith
                              RHF Reference
                        1 Threads,   4768 MiB Core
         ---------------------------------------------------------

  ==> Geometry <==

    Molecular point group: c1
    Full point group: C1

    Geometry (in Angstrom), charge = 0, multiplicity = 1:

       Center              X                  Y                   Z               Mass       
    ------------   -----------------  -----------------  -----------------  -----------------
           C         -0.449655546270    -1.010735932910    -1.236070931918    12.000000000000
           C         -0.621655546270     0.638164067090     1.399429068082    12.000000000000
           C          0.735644453730    -0.441235932910    -0.471770931918    12.000000000000
           C          0.407344453730     0.838664067090     0.297529068082    12.000000000000
           H         -0.882255546270    -0.261635932910    -1.906570931918     1.007825032070
           H         -0.130555546270    -1.864635932910    -1.842270931918     1.007825032070
           H         -1.232455546270    -1.361835932910    -0.557170931918     1.007825032070
           H         -1.597255546270     0.358564067090     0.991029068082     1.007825032070
           H         -0.753455546270     1.567064067090     1.963529068082     1.007825032070
           H         -0.302155546270    -0.140735932910     2.098729068082     1.007825032070
           H          1.123444453730    -1.201035932910     0.216629068082     1.007825032070
           H          1.538444453730    -0.221235932910    -1.185770931918     1.007825032070
           H          1.331444453730     1.220664067090     0.747829068082     1.007825032070
           H          0.051344453730     1.608864067090    -0.396370931918     1.007825032070

  Running in c1 symmetry.

  Rotational constants: A =      0.44229  B =      0.16155  C =      0.13728 [cm^-1]
  Rotational constants: A =  13259.62642  B =   4843.15707  C =   4115.42138 [MHz]
  Nuclear repulsion =  132.924619144758140

  Charge       = 0
  Multiplicity = 1
  Electrons    = 34
  Nalpha       = 17
  Nbeta        = 17

  ==> Algorithm <==

  SCF Algorithm Type is DF.
  DIIS enabled.
  MOM disabled.
  Fractional occupation disabled.
  Guess Type is SAD.
  Energy threshold   = 1.00e-10
  Density threshold  = 1.00e-10
  Integral threshold = 0.00e+00

  ==> Primary Basis <==

  Basis Set: DEF2-SV(P)
    Blend: DEF2-SV(P)
    Number of shells: 44
    Number of basis function: 76
    Number of Cartesian functions: 80
    Spherical Harmonics?: true
    Max angular momentum: 2

   => Loading Basis Set <=

    Name: (DEF2-SV(P) AUX)
    Role: JKFIT
    Keyword: DF_BASIS_SCF
    atoms 1-4  entry C          line   203 file /Users/bannanc/anaconda3/share/psi4/basis/def2-sv_p_-jkfit.gbs 
    atoms 5-14 entry H          line    23 file /Users/bannanc/anaconda3/share/psi4/basis/def2-sv_p_-jkfit.gbs 

  ==> Pre-Iterations <==

   -------------------------------------------------------
    Irrep   Nso     Nmo     Nalpha   Nbeta   Ndocc  Nsocc
   -------------------------------------------------------
     A         76      76       0       0       0       0
   -------------------------------------------------------
    Total      76      76      17      17      17       0
   -------------------------------------------------------

  ==> Integral Setup <==

  ==> DFJK: Density-Fitted J/K Matrices <==

    J tasked:                  Yes
    K tasked:                  Yes
    wK tasked:                  No
    OpenMP threads:              1
    Integrals threads:           1
    Memory (MB):              3576
    Algorithm:                Core
    Integral Cache:           NONE
    Schwarz Cutoff:          1E-12
    Fitting Condition:       1E-12

   => Auxiliary Basis Set <=

  Basis Set: (DEF2-SV(P) AUX)
    Blend: DEF2-SV_P_-JKFIT
    Number of shells: 160
    Number of basis function: 480
    Number of Cartesian functions: 556
    Spherical Harmonics?: true
    Max angular momentum: 4

  Minimum eigenvalue in the overlap matrix is 2.6142481590E-03.
  Using Symmetric Orthogonalization.

  SCF Guess: Superposition of Atomic Densities via on-the-fly atomic UHF.

  ==> Iterations <==

                           Total Energy        Delta E     RMS |[F,P]|

   @DF-RHF iter   0:  -158.75866004625519   -1.58759e+02   4.96802e-02 
   @DF-RHF iter   1:  -157.05915218407139    1.69951e+00   4.26312e-03 
   @DF-RHF iter   2:  -157.14798590627043   -8.88337e-02   1.35904e-03 DIIS
   @DF-RHF iter   3:  -157.15797249327474   -9.98659e-03   5.24143e-04 DIIS
   @DF-RHF iter   4:  -157.15914746010159   -1.17497e-03   7.79251e-05 DIIS
   @DF-RHF iter   5:  -157.15918965305957   -4.21930e-05   1.52405e-05 DIIS
   @DF-RHF iter   6:  -157.15919101786136   -1.36480e-06   4.38390e-06 DIIS
   @DF-RHF iter   7:  -157.15919108714817   -6.92868e-08   7.49515e-07 DIIS
   @DF-RHF iter   8:  -157.15919109068551   -3.53734e-09   8.91090e-08 DIIS
   @DF-RHF iter   9:  -157.15919109074014   -5.46265e-11   1.83235e-08 DIIS
   @DF-RHF iter  10:  -157.15919109074261   -2.47269e-12   3.61448e-09 DIIS
   @DF-RHF iter  11:  -157.15919109074281   -1.98952e-13   8.07679e-10 DIIS
   @DF-RHF iter  12:  -157.15919109074287   -5.68434e-14   2.77192e-10 DIIS
   @DF-RHF iter  13:  -157.15919109074312   -2.55795e-13   5.77189e-11 DIIS

  ==> Post-Iterations <==

    Orbital Energies (a.u.)
    -----------------------

    Doubly Occupied:                                                      

       1A    -11.215010     2A    -11.214467     3A    -11.209588  
       4A    -11.209557     5A     -1.064605     6A     -0.968587  
       7A     -0.864188     8A     -0.768831     9A     -0.629351  
      10A     -0.624246    11A     -0.579893    12A     -0.536661  
      13A     -0.535629    14A     -0.509035    15A     -0.467729  
      16A     -0.461806    17A     -0.459954  

    Virtual:                                                              

      18A      0.173010    19A      0.214944    20A      0.217599  
      21A      0.224152    22A      0.258028    23A      0.271919  
      24A      0.284838    25A      0.287211    26A      0.293392  
      27A      0.310921    28A      0.389935    29A      0.400021  
      30A      0.441790    31A      0.586978    32A      0.601503  
      33A      0.625087    34A      0.631024    35A      0.635065  
      36A      0.695899    37A      0.758160    38A      0.884467  
      39A      0.891847    40A      0.907617    41A      0.927964  
      42A      0.943835    43A      0.952582    44A      0.952929  
      45A      0.968799    46A      0.970787    47A      0.989691  
      48A      0.993923    49A      0.999762    50A      1.011641  
      51A      1.013957    52A      1.028893    53A      1.063912  
      54A      1.234586    55A      1.327129    56A      1.353476  
      57A      1.705749    58A      1.715812    59A      1.953765  
      60A      1.972323    61A      2.119829    62A      2.198135  
      63A      2.243157    64A      2.254762    65A      2.272582  
      66A      2.381746    67A      2.383545    68A      2.498529  
      69A      2.524817    70A      2.568814    71A      2.612927  
      72A      2.664148    73A      2.722665    74A      2.923901  
      75A      2.926045    76A      3.039102  

    Final Occupation by Irrep:
              A 
    DOCC [    17 ]

  Energy converged.

  @DF-RHF Final Energy:  -157.15919109074312

   => Energetics <=

    Nuclear Repulsion Energy =            132.9246191447581396
    One-Electron Energy =                -473.5293450211382833
    Two-Electron Energy =                 183.4455347856370224
    Total Energy =                       -157.1591910907431213



Properties will be evaluated at   0.000000,   0.000000,   0.000000 Bohr

Properties computed using the SCF density matrix

  Nuclear Dipole Moment: (a.u.)
     X:    -0.8001      Y:    -0.2775      Z:     0.1215

  Electronic Dipole Moment: (a.u.)
     X:     0.8209      Y:     0.2846      Z:    -0.1248

  Dipole Moment: (a.u.)
     X:     0.0208      Y:     0.0071      Z:    -0.0033     Total:     0.0222

  Dipole Moment: (Debye)
     X:     0.0529      Y:     0.0181      Z:    -0.0085     Total:     0.0565


*** tstop() called on Davids-iMac.local at Wed Nov  8 16:48:26 2017
Module time:
	user time   =       1.81 seconds =       0.03 minutes
	system time =       0.05 seconds =       0.00 minutes
	total time  =          2 seconds =       0.03 minutes
Total time:
	user time   =       1.82 seconds =       0.03 minutes
	system time =       0.05 seconds =       0.00 minutes
	total time  =          2 seconds =       0.03 minutes

  //>>>>>>>>>>>>>>>>>>>>>>>>>>>>>>>>>>>//
  //               DFMP2               //
  //<<<<<<<<<<<<<<<<<<<<<<<<<<<<<<<<<<<//

   => Loading Basis Set <=

    Name: DEF2-SV(P)-RI
    Role: RIFIT
    Keyword: DF_BASIS_MP2
    atoms 1-4  entry C          line   153 file /Users/bannanc/anaconda3/share/psi4/basis/def2-sv_p_-ri.gbs 
    atoms 5-14 entry H          line    22 file /Users/bannanc/anaconda3/share/psi4/basis/def2-sv_p_-ri.gbs 

	 --------------------------------------------------------
	                          DF-MP2                         
	      2nd-Order Density-Fitted Moller-Plesset Theory     
	              RMP2 Wavefunction,   1 Threads             
	                                                         
	        Rob Parrish, Justin Turney, Andy Simmonett,      
	           Ed Hohenstein, and C. David Sherrill          
	 --------------------------------------------------------

   => Auxiliary Basis Set <=

  Basis Set: DEF2-SV(P)-RI
    Blend: DEF2-SV(P)-RI
    Number of shells: 124
    Number of basis function: 332
    Number of Cartesian functions: 370
    Spherical Harmonics?: true
    Max angular momentum: 3

	 --------------------------------------------------------
	                 NBF =    76, NAUX =   332
	 --------------------------------------------------------
	   CLASS    FOCC     OCC    AOCC    AVIR     VIR    FVIR
	   PAIRS       4      17      13      59      59       0
	 --------------------------------------------------------


         ------------------------------------------------------------
                                     CPHF                           
                                  Rob Parrish                       
         ------------------------------------------------------------

  ==> Geometry <==

    Molecular point group: c1
    Full point group: C1

    Geometry (in Angstrom), charge = 0, multiplicity = 1:

       Center              X                  Y                   Z               Mass       
    ------------   -----------------  -----------------  -----------------  -----------------
           C         -0.449655546270    -1.010735932910    -1.236070931918    12.000000000000
           C         -0.621655546270     0.638164067090     1.399429068082    12.000000000000
           C          0.735644453730    -0.441235932910    -0.471770931918    12.000000000000
           C          0.407344453730     0.838664067090     0.297529068082    12.000000000000
           H         -0.882255546270    -0.261635932910    -1.906570931918     1.007825032070
           H         -0.130555546270    -1.864635932910    -1.842270931918     1.007825032070
           H         -1.232455546270    -1.361835932910    -0.557170931918     1.007825032070
           H         -1.597255546270     0.358564067090     0.991029068082     1.007825032070
           H         -0.753455546270     1.567064067090     1.963529068082     1.007825032070
           H         -0.302155546270    -0.140735932910     2.098729068082     1.007825032070
           H          1.123444453730    -1.201035932910     0.216629068082     1.007825032070
           H          1.538444453730    -0.221235932910    -1.185770931918     1.007825032070
           H          1.331444453730     1.220664067090     0.747829068082     1.007825032070
           H          0.051344453730     1.608864067090    -0.396370931918     1.007825032070

  Nuclear repulsion =  132.924619144758140
  Reference energy  = -157.159191090743121

  ==> Basis Set <==

  Basis Set: DEF2-SV(P)
    Blend: DEF2-SV(P)
    Number of shells: 44
    Number of basis function: 76
    Number of Cartesian functions: 80
    Spherical Harmonics?: true
    Max angular momentum: 2

  ==> CGRSolver (by Rob Parrish) <==

   Number of roots    =         1
   Preconditioning    =    JACOBI
   Convergence cutoff =     1E-06
   Maximum iterations =       100

  ==> CPHFRHamiltonian (by Rob Parrish) <== 

  ==> DFJK: Density-Fitted J/K Matrices <==

    J tasked:                  Yes
    K tasked:                  Yes
    wK tasked:                  No
    OpenMP threads:              1
    Integrals threads:           1
    Memory (MB):              3576
    Algorithm:                Core
    Integral Cache:           NONE
    Schwarz Cutoff:          1E-12
    Fitting Condition:       1E-12

   => Auxiliary Basis Set <=

  Basis Set: (DEF2-SV(P) AUX)
    Blend: DEF2-SV_P_-JKFIT
    Number of shells: 160
    Number of basis function: 480
    Number of Cartesian functions: 556
    Spherical Harmonics?: true
    Max angular momentum: 4

  ==> CPHF Iterations <==

  => Iterations <=

             Iter  Converged  Remaining    Residual
  CGR           1          0          1   9.822E-02
  CGR           2          0          1   9.655E-03
  CGR           3          0          1   2.964E-03
  CGR           4          0          1   4.494E-04
  CGR           5          0          1   9.960E-05
  CGR           6          0          1   1.296E-05
  CGR           7          0          1   2.398E-06
  CGR           8          1          0   4.605E-07

    CGRSolver converged.

  ==> DFCorrGrad: Density-Fitted Correlated Gradients <==

    OpenMP threads:              1
    Integrals threads:           1
    Memory (MB):              3576
    Schwarz Cutoff:          0E+00
    Fitting Condition:       1E-12

   => Auxiliary Basis Set <=

  Basis Set: (DEF2-SV(P) AUX)
    Blend: DEF2-SV_P_-JKFIT
    Number of shells: 160
    Number of basis function: 480
    Number of Cartesian functions: 556
    Spherical Harmonics?: true
    Max angular momentum: 4

	-----------------------------------------------------------
	 ==================> DF-MP2 Energies <==================== 
	-----------------------------------------------------------
	 Reference Energy          =    -157.1591910907431213 [Eh]
	 Singles Energy            =      -0.0000000000000000 [Eh]
	 Same-Spin Energy          =      -0.1189553755604772 [Eh]
	 Opposite-Spin Energy      =      -0.3960623092247044 [Eh]
	 Correlation Energy        =      -0.5150176847851816 [Eh]
	 Total Energy              =    -157.6742087755283137 [Eh]
	-----------------------------------------------------------
	 ================> DF-SCS-MP2 Energies <================== 
	-----------------------------------------------------------
	 SCS Same-Spin Scale       =       0.3333333333333333 [-]
	 SCS Opposite-Spin Scale   =       1.2000000000000000 [-]
	 SCS Same-Spin Energy      =      -0.0396517918534924 [Eh]
	 SCS Opposite-Spin Energy  =      -0.4752747710696452 [Eh]
	 SCS Correlation Energy    =      -0.5149265629231377 [Eh]
	 SCS Total Energy          =    -157.6741176536662579 [Eh]
	-----------------------------------------------------------


  -Total Gradient:
     Atom            X                  Y                   Z
    ------   -----------------  -----------------  -----------------
       1       -0.004063108771     0.002027535331    -0.002655737831
       2       -0.001230457675    -0.003784612251     0.003372282428
       3        0.005318844356    -0.007487747747     0.003350956393
       4       -0.001378810291     0.008839791120    -0.003920923579
       5        0.003054099838    -0.004788682416     0.004147725114
       6       -0.000326840078     0.005309859016     0.004298333597
       7        0.005380566439     0.001820256351    -0.003010725306
       8        0.005943131277     0.002151564732     0.001364079918
       9        0.001864666432    -0.004804286512    -0.004518556373
      10       -0.001742000843     0.005235526053    -0.004405351963
      11       -0.003104463025     0.003711089618    -0.005079358425
      12       -0.005623037650    -0.000543289621     0.003366727613
      13       -0.005414233943    -0.003337524057    -0.001715141553
      14        0.001321643935    -0.004349479617     0.005405689968


*** tstop() called on Davids-iMac.local at Wed Nov  8 16:48:30 2017
Module time:
	user time   =       5.31 seconds =       0.09 minutes
	system time =       0.17 seconds =       0.00 minutes
	total time  =          6 seconds =       0.10 minutes
Total time:
	user time   =       5.32 seconds =       0.09 minutes
	system time =       0.17 seconds =       0.00 minutes
	total time  =          6 seconds =       0.10 minutes

			-----------------------------------------
			 OPTKING 2.0: for geometry optimizations 
			  - R.A. King,  Bethel University        
			-----------------------------------------

	Internal coordinates to be generated automatically.
	Detected frag 1 with atoms:  1 2 3 4 5 6 7 8 9 10 11 12 13 14
	---Fragment 1 Bond Connectivity---
	 1 : 3 5 6 7
	 2 : 4 8 9 10
	 3 : 1 4 11 12
	 4 : 2 3 13 14
	 5 : 1
	 6 : 1
	 7 : 1
	 8 : 2
	 9 : 2
	 10 : 2
	 11 : 3
	 12 : 3
	 13 : 4
	 14 : 4

	---Fragment 1 Geometry and Gradient---
	 C          -0.8497258366       -1.9100141059       -2.3358355421
	 C          -1.1747587314        1.2059553146        2.6445376811
	 C           1.3901665487       -0.8338150732       -0.8915178588
	 C           0.7697694593        1.5848454043        0.5622484552
	 H          -1.6672213617       -0.4944202597       -3.6028969142
	 H          -0.2467142276       -3.5236512507       -3.4813875239
	 H          -2.3290034534       -2.5734969511       -1.0529004705
	 H          -3.0183755467        0.6775878879        1.8727735284
	 H          -1.4238246358        2.9613219195        3.7105321926
	 H          -0.5709912320       -0.2659523703        3.9660231658
	 H           2.1230023431       -2.2696289890        0.4093696111
	 H           2.9072386882       -0.4180753240       -2.2407823177
	 H           2.5160653787        2.3067207871        1.4131921329
	 H           0.0970269560        3.0403124718       -0.7490325084
	            -0.0040631088        0.0020275353       -0.0026557378
	            -0.0012304577       -0.0037846123        0.0033722824
	             0.0053188444       -0.0074877477        0.0033509564
	            -0.0013788103        0.0088397911       -0.0039209236
	             0.0030540998       -0.0047886824        0.0041477251
	            -0.0003268401        0.0053098590        0.0042983336
	             0.0053805664        0.0018202564       -0.0030107253
	             0.0059431313        0.0021515647        0.0013640799
	             0.0018646664       -0.0048042865       -0.0045185564
	            -0.0017420008        0.0052355261       -0.0044053520
	            -0.0031044630        0.0037110896       -0.0050793584
	            -0.0056230377       -0.0005432896        0.0033667276
	            -0.0054142339       -0.0033375241       -0.0017151416
	             0.0013216439       -0.0043494796        0.0054056900

	Previous optimization step data not found.  Starting new optimization.

	---Fragment 1 Intrafragment Coordinates---
	 - Coordinate -           - BOHR/RAD -       - ANG/DEG -
	 R(1,3)           =         2.874261	       1.520993
	 R(1,5)           =         2.068248	       1.094470
	 R(1,6)           =         2.068753	       1.094737
	 R(1,7)           =         2.067461	       1.094053
	 R(2,4)           =         2.874139	       1.520929
	 R(2,8)           =         2.067297	       1.093966
	 R(2,9)           =         2.068741	       1.094731
	 R(2,10)          =         2.068181	       1.094434
	 R(3,4)           =         2.889333	       1.528969
	 R(3,11)          =         2.071453	       1.096166
	 R(3,12)          =         2.072405	       1.096669
	 R(4,13)          =         2.072380	       1.096656
	 R(4,14)          =         2.071334	       1.096103
	 B(1,3,4)         =         1.981152	     113.511640
	 B(1,3,11)        =         1.908944	     109.374429
	 B(1,3,12)        =         1.894862	     108.567600
	 B(2,4,3)         =         1.981708	     113.543528
	 B(2,4,13)        =         1.894985	     108.574651
	 B(2,4,14)        =         1.908732	     109.362311
	 B(3,1,5)         =         1.938630	     111.075344
	 B(3,1,6)         =         1.921072	     110.069301
	 B(3,1,7)         =         1.945426	     111.464683
	 B(3,4,13)        =         1.893628	     108.496893
	 B(3,4,14)        =         1.917097	     109.841540
	 B(4,2,8)         =         1.946129	     111.504998
	 B(4,2,9)         =         1.920817	     110.054698
	 B(4,2,10)        =         1.938242	     111.053063
	 B(4,3,11)        =         1.917939	     109.889790
	 B(4,3,12)        =         1.893188	     108.471654
	 B(5,1,6)         =         1.885826	     108.049858
	 B(5,1,7)         =         1.893356	     108.481284
	 B(6,1,7)         =         1.877438	     107.569284
	 B(8,2,9)         =         1.877446	     107.569742
	 B(8,2,10)        =         1.893345	     108.480689
	 B(9,2,10)        =         1.885762	     108.046199
	 B(11,3,12)       =         1.863919	     106.794699
	 B(13,4,14)       =         1.863835	     106.789858
	 D(1,3,4,2)       =         1.112534	      63.743499
	 D(1,3,4,13)      =        -3.062165	    -175.449110
	 D(1,3,4,14)      =        -1.030713	     -59.055497
	 D(2,4,3,11)      =        -1.031225	     -59.084846
	 D(2,4,3,12)      =        -3.062993	    -175.496553
	 D(3,4,2,8)       =        -1.139296	     -65.276848
	 D(3,4,2,9)       =         3.061886	     175.433139
	 D(3,4,2,10)      =         0.974536	      55.836824
	 D(4,3,1,5)       =         0.956712	      54.815587
	 D(4,3,1,6)       =         3.044556	     174.440204
	 D(4,3,1,7)       =        -1.156919	     -66.286556
	 D(5,1,3,11)      =         3.105418	     177.927343
	 D(5,1,3,12)      =        -1.150003	     -65.890302
	 D(6,1,3,11)      =        -1.089924	     -62.448041
	 D(6,1,3,12)      =         0.937841	      53.734314
	 D(7,1,3,11)      =         0.991787	      56.825200
	 D(7,1,3,12)      =         3.019551	     173.007555
	 D(8,2,4,13)      =         3.036166	     173.959520
	 D(8,2,4,14)      =         1.008550	      57.785644
	 D(9,2,4,13)      =         0.954163	      54.669508
	 D(9,2,4,14)      =        -1.073454	     -61.504368
	 D(10,2,4,13)     =        -1.133187	     -64.926807
	 D(10,2,4,14)     =         3.122382	     178.899317
	 D(11,3,4,13)     =         1.077262	      61.722545
	 D(11,3,4,14)     =         3.108713	     178.116158
	 D(12,3,4,13)     =        -0.954506	     -54.689162
	 D(12,3,4,14)     =         1.076946	      61.704451

	Current energy   :      -157.6742087755

	Generating empirical Hessian (Schlegel '84) for each fragment.
	Taking RFO optimization step.
	Going to follow RFO solution 1.
	Using RFO vector 1.
	Norm of target step-size    0.12135
	Projected energy change by RFO approximation:        -0.0024011092

	Back-transformation to cartesian coordinates...
	Successfully converged to displaced geometry.
	First geometry is closer to target in internal coordinates, so am using that one.
	First geometry has RMS(Delta(q)) = 1.39e-04

	--- Internal Coordinate Step in ANG or DEG, aJ/ANG or AJ/DEG ---
	 ---------------------------------------------------------------------------
	   Coordinate                Previous        Force       Change         New 
	   ----------                --------       ------       ------       ------
	    1 R(1,3)          =      1.520993     0.050953     0.010872     1.531865
	    2 R(1,5)          =      1.094470     0.057883     0.010799     1.105269
	    3 R(1,6)          =      1.094737     0.054517     0.010267     1.105004
	    4 R(1,7)          =      1.094053     0.051922     0.009694     1.103747
	    5 R(2,4)          =      1.520929     0.050642     0.010766     1.531695
	    6 R(2,8)          =      1.093966     0.052392     0.009737     1.103704
	    7 R(2,9)          =      1.094731     0.054618     0.010296     1.105026
	    8 R(2,10)         =      1.094434     0.058079     0.010876     1.105310
	    9 R(3,4)          =      1.528969     0.017527     0.003951     1.532920
	   10 R(3,11)         =      1.096166     0.056522     0.010681     1.106847
	   11 R(3,12)         =      1.096669     0.052869     0.009917     1.106586
	   12 R(4,13)         =      1.096656     0.052968     0.009936     1.106593
	   13 R(4,14)         =      1.096103     0.056910     0.010729     1.106831
	   14 B(1,3,4)        =    113.511640     0.000169     0.718668   114.230308
	   15 B(1,3,11)       =    109.374429     0.000012     0.013168   109.387597
	   16 B(1,3,12)       =    108.567600    -0.000017     0.577129   109.144728
	   17 B(2,4,3)        =    113.543528     0.000163     0.698976   114.242505
	   18 B(2,4,13)       =    108.574651    -0.000018     0.541819   109.116470
	   19 B(2,4,14)       =    109.362311     0.000014     0.040918   109.403230
	   20 B(3,1,5)        =    111.075344    -0.000047    -0.359157   110.716186
	   21 B(3,1,6)        =    110.069301     0.000182     0.995602   111.064902
	   22 B(3,1,7)        =    111.464683     0.000091     0.401418   111.866102
	   23 B(3,4,13)       =    108.496893    -0.000015     0.336723   108.833616
	   24 B(3,4,14)       =    109.841540    -0.000144    -1.115306   108.726234
	   25 B(4,2,8)        =    111.504998     0.000082     0.358122   111.863120
	   26 B(4,2,9)        =    110.054698     0.000184     0.999298   111.053996
	   27 B(4,2,10)       =    111.053063    -0.000042    -0.333379   110.719684
	   28 B(4,3,11)       =    109.889790    -0.000148    -1.157302   108.732488
	   29 B(4,3,12)       =    108.471654    -0.000015     0.360584   108.832238
	   30 B(5,1,6)        =    108.049858    -0.000069    -0.307195   107.742663
	   31 B(5,1,7)        =    108.481284    -0.000065    -0.581247   107.900037
	   32 B(6,1,7)        =    107.569284    -0.000102    -0.197489   107.371795
	   33 B(8,2,9)        =    107.569742    -0.000099    -0.191011   107.378732
	   34 B(8,2,10)       =    108.480689    -0.000063    -0.578088   107.902601
	   35 B(9,2,10)       =    108.046199    -0.000071    -0.302066   107.744132
	   36 B(11,3,12)      =    106.794699    -0.000008    -0.588397   106.206302
	   37 B(13,4,14)      =    106.789858    -0.000009    -0.578640   106.211218
	   38 D(1,3,4,2)      =     63.743499    -0.000009    -2.033587    61.709912
	   39 D(1,3,4,13)     =   -175.449110     0.000008    -0.627719  -176.076828
	   40 D(1,3,4,14)     =    -59.055497    -0.000014    -1.738704   -60.794201
	   41 D(2,4,3,11)     =    -59.084846    -0.000014    -1.685400   -60.770246
	   42 D(2,4,3,12)     =   -175.496553     0.000009    -0.553116  -176.049670
	   43 D(3,4,2,8)      =    -65.276848     0.000018     1.202604   -64.074245
	   44 D(3,4,2,9)      =    175.433139     0.000007     0.537903   175.971042
	   45 D(3,4,2,10)     =     55.836824     0.000006     0.480305    56.317129
	   46 D(4,3,1,5)      =     54.815587     0.000007     1.145539    55.961126
	   47 D(4,3,1,6)      =    174.440204     0.000008     1.177825   175.618028
	   48 D(4,3,1,7)      =    -66.286556     0.000020     1.859961   -64.426595
	   49 D(5,1,3,11)     =    177.927343    -0.000007     0.155919   178.083262
	   50 D(5,1,3,12)     =    -65.890302    -0.000010    -0.217938   -66.108241
	   51 D(6,1,3,11)     =    -62.448041    -0.000007     0.188205   -62.259835
	   52 D(6,1,3,12)     =     53.734314    -0.000010    -0.185652    53.548662
	   53 D(7,1,3,11)     =     56.825200     0.000005     0.870341    57.695541
	   54 D(7,1,3,12)     =    173.007555     0.000002     0.496484   173.504038
	   55 D(8,2,4,13)     =    173.959520     0.000001    -0.092200   173.867321
	   56 D(8,2,4,14)     =     57.785644     0.000004     0.274401    58.060045
	   57 D(9,2,4,13)     =     54.669508    -0.000010    -0.756900    53.912608
	   58 D(9,2,4,14)     =    -61.504368    -0.000007    -0.390300   -61.894668
	   59 D(10,2,4,13)    =    -64.926807    -0.000011    -0.814499   -65.741306
	   60 D(10,2,4,14)    =    178.899317    -0.000008    -0.447898   178.451419
	   61 D(11,3,4,13)    =     61.722545     0.000003    -0.279531    61.443014
	   62 D(11,3,4,14)    =    178.116158    -0.000020    -1.390517   176.725641
	   63 D(12,3,4,13)    =    -54.689162     0.000026     0.852752   -53.836410
	   64 D(12,3,4,14)    =     61.704451     0.000003    -0.258234    61.446217
	 ---------------------------------------------------------------------------
	Successfully symmetrized geometry.

  ==> Convergence Check <==

  Measures of convergence in internal coordinates in au.
  Criteria marked as inactive (o), active & met (*), and active & unmet ( ).
  --------------------------------------------------------------------------------------------- ~
   Step     Total Energy     Delta E     MAX Force     RMS Force      MAX Disp      RMS Disp    ~
  --------------------------------------------------------------------------------------------- ~
    Convergence Criteria    1.00e-06 *    3.00e-04 *             o    1.20e-03 *             o  ~
  --------------------------------------------------------------------------------------------- ~
      1    -157.67420878   -1.58e+02      7.05e-03      3.00e-03 o    3.55e-02      1.52e-02 o  ~
  ---------------------------------------------------------------------------------------------

	Writing optimization data to binary file.
	Structure for next step:
	Cartesian Geometry (in Angstrom)
	    C    -0.4517086357  -1.0237653680  -1.2419399185
	    C    -0.6293251311   0.6465913518   1.4072152533
	    C     0.7417158834  -0.4338844991  -0.4840547788
	    C     0.4181143249   0.8390630124   0.3063447082
	    H    -0.8937315457  -0.2721586919  -1.9211475756
	    H    -0.1442843992  -1.8910543673  -1.8537685879
	    H    -1.2444668196  -1.3688832941  -0.5558742679
	    H    -1.6130784779   0.3646996088   0.9937805858
	    H    -0.7696023275   1.5758182100   1.9885437352
	    H    -0.3163422253  -0.1466744017   2.1104097000
	    H     1.1452829264  -1.1925302046   0.2135840109
	    H     1.5537761380  -0.2116953827  -1.2021937380
	    H     1.3513382051   1.2262096244   0.7577399860
	    H     0.0705344364   1.6171613413  -0.3999321596
			--------------------------
			 OPTKING Finished Execution 
			--------------------------

    Structure for next step:
    Molecular point group: c1
    Full point group: C1

    Geometry (in Angstrom), charge = 0, multiplicity = 1:

    C           -0.453055941981    -1.024361217215    -1.241646367067
    C           -0.630672437338     0.645995502572     1.407508804714
    C            0.740368577201    -0.434480348325    -0.483761227365
    C            0.416767018672     0.838467163122     0.306638259608
    H           -0.895078851957    -0.272754541169    -1.920854024171
    H           -0.145631705487    -1.891650216582    -1.853475036538
    H           -1.245814125806    -1.369479143301    -0.555580716535
    H           -1.614425784123     0.364103759558     0.994074137247
    H           -0.770949633728     1.575222360776     1.988837286603
    H           -0.317689531516    -0.147270250926     2.110703251428
    H            1.143935620176    -1.193126053866     0.213877562298
    H            1.552428831752    -0.212291231939    -1.201900186627
    H            1.349990898825     1.225613775148     0.758033537402
    H            0.069187130207     1.616565492088    -0.399638608196

gradient() will perform analytic gradient computation.

*** tstart() called on Davids-iMac.local
*** at Wed Nov  8 16:48:30 2017

    SCF Algorithm Type (re)set to DF.

*** tstart() called on Davids-iMac.local
*** at Wed Nov  8 16:48:30 2017

   => Loading Basis Set <=

    Name: DEF2-SV(P)
    Role: ORBITAL
    Keyword: BASIS
    atoms 1-4  entry C          line    88 file /Users/bannanc/anaconda3/share/psi4/basis/def2-sv_p_.gbs 
    atoms 5-14 entry H          line    15 file /Users/bannanc/anaconda3/share/psi4/basis/def2-sv_p_.gbs 


         ---------------------------------------------------------
                                   SCF
            by Justin Turney, Rob Parrish, Andy Simmonett
                             and Daniel Smith
                              RHF Reference
                        1 Threads,   4768 MiB Core
         ---------------------------------------------------------

  ==> Geometry <==

    Molecular point group: c1
    Full point group: C1

    Geometry (in Angstrom), charge = 0, multiplicity = 1:

       Center              X                  Y                   Z               Mass       
    ------------   -----------------  -----------------  -----------------  -----------------
           C         -0.453055941981    -1.024361217215    -1.241646367067    12.000000000000
           C         -0.630672437338     0.645995502572     1.407508804714    12.000000000000
           C          0.740368577201    -0.434480348325    -0.483761227365    12.000000000000
           C          0.416767018672     0.838467163122     0.306638259608    12.000000000000
           H         -0.895078851957    -0.272754541169    -1.920854024171     1.007825032070
           H         -0.145631705487    -1.891650216582    -1.853475036538     1.007825032070
           H         -1.245814125806    -1.369479143301    -0.555580716535     1.007825032070
           H         -1.614425784123     0.364103759558     0.994074137247     1.007825032070
           H         -0.770949633728     1.575222360776     1.988837286603     1.007825032070
           H         -0.317689531516    -0.147270250926     2.110703251428     1.007825032070
           H          1.143935620176    -1.193126053866     0.213877562298     1.007825032070
           H          1.552428831752    -0.212291231939    -1.201900186627     1.007825032070
           H          1.349990898825     1.225613775148     0.758033537402     1.007825032070
           H          0.069187130207     1.616565492088    -0.399638608196     1.007825032070

  Running in c1 symmetry.

  Rotational constants: A =      0.43509  B =      0.15943  C =      0.13478 [cm^-1]
  Rotational constants: A =  13043.61207  B =   4779.56418  C =   4040.50375 [MHz]
  Nuclear repulsion =  131.896536494739536

  Charge       = 0
  Multiplicity = 1
  Electrons    = 34
  Nalpha       = 17
  Nbeta        = 17

  ==> Algorithm <==

  SCF Algorithm Type is DF.
  DIIS enabled.
  MOM disabled.
  Fractional occupation disabled.
  Guess Type is READ.
  Energy threshold   = 1.00e-10
  Density threshold  = 1.00e-10
  Integral threshold = 0.00e+00

  ==> Primary Basis <==

  Basis Set: DEF2-SV(P)
    Blend: DEF2-SV(P)
    Number of shells: 44
    Number of basis function: 76
    Number of Cartesian functions: 80
    Spherical Harmonics?: true
    Max angular momentum: 2

   => Loading Basis Set <=

    Name: (DEF2-SV(P) AUX)
    Role: JKFIT
    Keyword: DF_BASIS_SCF
    atoms 1-4  entry C          line   203 file /Users/bannanc/anaconda3/share/psi4/basis/def2-sv_p_-jkfit.gbs 
    atoms 5-14 entry H          line    23 file /Users/bannanc/anaconda3/share/psi4/basis/def2-sv_p_-jkfit.gbs 

  Reading orbitals from file 180, no projection.

  ==> Pre-Iterations <==

   -------------------------------------------------------
    Irrep   Nso     Nmo     Nalpha   Nbeta   Ndocc  Nsocc
   -------------------------------------------------------
     A         76      76       0       0       0       0
   -------------------------------------------------------
    Total      76      76      17      17      17       0
   -------------------------------------------------------

  ==> Integral Setup <==

  ==> DFJK: Density-Fitted J/K Matrices <==

    J tasked:                  Yes
    K tasked:                  Yes
    wK tasked:                  No
    OpenMP threads:              1
    Integrals threads:           1
    Memory (MB):              3576
    Algorithm:                Core
    Integral Cache:           NONE
    Schwarz Cutoff:          1E-12
    Fitting Condition:       1E-12

   => Auxiliary Basis Set <=

  Basis Set: (DEF2-SV(P) AUX)
    Blend: DEF2-SV_P_-JKFIT
    Number of shells: 160
    Number of basis function: 480
    Number of Cartesian functions: 556
    Spherical Harmonics?: true
    Max angular momentum: 4

  Minimum eigenvalue in the overlap matrix is 2.7400761264E-03.
  Using Symmetric Orthogonalization.

  SCF Guess: Orbitals guess was supplied from a previous computation.

  ==> Iterations <==

                           Total Energy        Delta E     RMS |[F,P]|

   @DF-RHF iter   0:  -157.11036848850017   -1.57110e+02   6.41113e-04 
   @DF-RHF iter   1:  -157.15869613739193   -4.83276e-02   8.33882e-05 
   @DF-RHF iter   2:  -157.15872817630350   -3.20389e-05   3.31520e-05 DIIS
   @DF-RHF iter   3:  -157.15873182946336   -3.65316e-06   9.55240e-06 DIIS
   @DF-RHF iter   4:  -157.15873232550479   -4.96041e-07   1.27486e-06 DIIS
   @DF-RHF iter   5:  -157.15873233703206   -1.15273e-08   3.89540e-07 DIIS
   @DF-RHF iter   6:  -157.15873233784384   -8.11781e-10   1.08914e-07 DIIS
   @DF-RHF iter   7:  -157.15873233790916   -6.53131e-11   1.92232e-08 DIIS
   @DF-RHF iter   8:  -157.15873233791214   -2.98428e-12   3.25890e-09 DIIS
   @DF-RHF iter   9:  -157.15873233791228   -1.42109e-13   6.81629e-10 DIIS
   @DF-RHF iter  10:  -157.15873233791228    0.00000e+00   1.18348e-10 DIIS
   @DF-RHF iter  11:  -157.15873233791200    2.84217e-13   2.00344e-11 DIIS

  ==> Post-Iterations <==

    Orbital Energies (a.u.)
    -----------------------

    Doubly Occupied:                                                      

       1A    -11.219899     2A    -11.219368     3A    -11.214901  
       4A    -11.214877     5A     -1.059712     6A     -0.963916  
       7A     -0.862865     8A     -0.765809     9A     -0.625319  
      10A     -0.620311    11A     -0.574352    12A     -0.536070  
      13A     -0.533626    14A     -0.505907    15A     -0.464145  
      16A     -0.462300    17A     -0.460501  

    Virtual:                                                              

      18A      0.171768    19A      0.212939    20A      0.216778  
      21A      0.224111    22A      0.256543    23A      0.269140  
      24A      0.282523    25A      0.285725    26A      0.292178  
      27A      0.308888    28A      0.387231    29A      0.395021  
      30A      0.440985    31A      0.582576    32A      0.598564  
      33A      0.626823    34A      0.630794    35A      0.632184  
      36A      0.699166    37A      0.761543    38A      0.879151  
      39A      0.881055    40A      0.896732    41A      0.921865  
      42A      0.941501    43A      0.948162    44A      0.951671  
      45A      0.959460    46A      0.964777    47A      0.982718  
      48A      0.988238    49A      0.993476    50A      1.004132  
      51A      1.004687    52A      1.015625    53A      1.049483  
      54A      1.227206    55A      1.317990    56A      1.346157  
      57A      1.705465    58A      1.720110    59A      1.947076  
      60A      1.970533    61A      2.115059    62A      2.188869  
      63A      2.230890    64A      2.240666    65A      2.274785  
      66A      2.360992    67A      2.372276    68A      2.485867  
      69A      2.511266    70A      2.559291    71A      2.597244  
      72A      2.655356    73A      2.702140    74A      2.909265  
      75A      2.924312    76A      3.026823  

    Final Occupation by Irrep:
              A 
    DOCC [    17 ]

  Energy converged.

  @DF-RHF Final Energy:  -157.15873233791200

   => Energetics <=

    Nuclear Repulsion Energy =            131.8965364947395358
    One-Electron Energy =                -471.5027786447211042
    Two-Electron Energy =                 182.4475098120695407
    Total Energy =                       -157.1587323379119994



Properties will be evaluated at   0.000000,   0.000000,   0.000000 Bohr

Properties computed using the SCF density matrix

  Nuclear Dipole Moment: (a.u.)
     X:    -0.8194      Y:    -0.2860      Z:     0.1257

  Electronic Dipole Moment: (a.u.)
     X:     0.8366      Y:     0.2919      Z:    -0.1284

  Dipole Moment: (a.u.)
     X:     0.0172      Y:     0.0060      Z:    -0.0027     Total:     0.0184

  Dipole Moment: (Debye)
     X:     0.0438      Y:     0.0151      Z:    -0.0068     Total:     0.0468


*** tstop() called on Davids-iMac.local at Wed Nov  8 16:48:31 2017
Module time:
	user time   =       1.30 seconds =       0.02 minutes
	system time =       0.03 seconds =       0.00 minutes
	total time  =          1 seconds =       0.02 minutes
Total time:
	user time   =       6.66 seconds =       0.11 minutes
	system time =       0.21 seconds =       0.00 minutes
	total time  =          7 seconds =       0.12 minutes

  //>>>>>>>>>>>>>>>>>>>>>>>>>>>>>>>>>>>//
  //               DFMP2               //
  //<<<<<<<<<<<<<<<<<<<<<<<<<<<<<<<<<<<//

   => Loading Basis Set <=

    Name: DEF2-SV(P)-RI
    Role: RIFIT
    Keyword: DF_BASIS_MP2
    atoms 1-4  entry C          line   153 file /Users/bannanc/anaconda3/share/psi4/basis/def2-sv_p_-ri.gbs 
    atoms 5-14 entry H          line    22 file /Users/bannanc/anaconda3/share/psi4/basis/def2-sv_p_-ri.gbs 

	 --------------------------------------------------------
	                          DF-MP2                         
	      2nd-Order Density-Fitted Moller-Plesset Theory     
	              RMP2 Wavefunction,   1 Threads             
	                                                         
	        Rob Parrish, Justin Turney, Andy Simmonett,      
	           Ed Hohenstein, and C. David Sherrill          
	 --------------------------------------------------------

   => Auxiliary Basis Set <=

  Basis Set: DEF2-SV(P)-RI
    Blend: DEF2-SV(P)-RI
    Number of shells: 124
    Number of basis function: 332
    Number of Cartesian functions: 370
    Spherical Harmonics?: true
    Max angular momentum: 3

	 --------------------------------------------------------
	                 NBF =    76, NAUX =   332
	 --------------------------------------------------------
	   CLASS    FOCC     OCC    AOCC    AVIR     VIR    FVIR
	   PAIRS       4      17      13      59      59       0
	 --------------------------------------------------------


         ------------------------------------------------------------
                                     CPHF                           
                                  Rob Parrish                       
         ------------------------------------------------------------

  ==> Geometry <==

    Molecular point group: c1
    Full point group: C1

    Geometry (in Angstrom), charge = 0, multiplicity = 1:

       Center              X                  Y                   Z               Mass       
    ------------   -----------------  -----------------  -----------------  -----------------
           C         -0.453055941981    -1.024361217215    -1.241646367067    12.000000000000
           C         -0.630672437338     0.645995502572     1.407508804714    12.000000000000
           C          0.740368577201    -0.434480348325    -0.483761227365    12.000000000000
           C          0.416767018672     0.838467163122     0.306638259608    12.000000000000
           H         -0.895078851957    -0.272754541169    -1.920854024171     1.007825032070
           H         -0.145631705487    -1.891650216582    -1.853475036538     1.007825032070
           H         -1.245814125806    -1.369479143301    -0.555580716535     1.007825032070
           H         -1.614425784123     0.364103759558     0.994074137247     1.007825032070
           H         -0.770949633728     1.575222360776     1.988837286603     1.007825032070
           H         -0.317689531516    -0.147270250926     2.110703251428     1.007825032070
           H          1.143935620176    -1.193126053866     0.213877562298     1.007825032070
           H          1.552428831752    -0.212291231939    -1.201900186627     1.007825032070
           H          1.349990898825     1.225613775148     0.758033537402     1.007825032070
           H          0.069187130207     1.616565492088    -0.399638608196     1.007825032070

  Nuclear repulsion =  131.896536494739536
  Reference energy  = -157.158732337911999

  ==> Basis Set <==

  Basis Set: DEF2-SV(P)
    Blend: DEF2-SV(P)
    Number of shells: 44
    Number of basis function: 76
    Number of Cartesian functions: 80
    Spherical Harmonics?: true
    Max angular momentum: 2

  ==> CGRSolver (by Rob Parrish) <==

   Number of roots    =         1
   Preconditioning    =    JACOBI
   Convergence cutoff =     1E-06
   Maximum iterations =       100

  ==> CPHFRHamiltonian (by Rob Parrish) <== 

  ==> DFJK: Density-Fitted J/K Matrices <==

    J tasked:                  Yes
    K tasked:                  Yes
    wK tasked:                  No
    OpenMP threads:              1
    Integrals threads:           1
    Memory (MB):              3576
    Algorithm:                Core
    Integral Cache:           NONE
    Schwarz Cutoff:          1E-12
    Fitting Condition:       1E-12

   => Auxiliary Basis Set <=

  Basis Set: (DEF2-SV(P) AUX)
    Blend: DEF2-SV_P_-JKFIT
    Number of shells: 160
    Number of basis function: 480
    Number of Cartesian functions: 556
    Spherical Harmonics?: true
    Max angular momentum: 4

  ==> CPHF Iterations <==

  => Iterations <=

             Iter  Converged  Remaining    Residual
  CGR           1          0          1   9.771E-02
  CGR           2          0          1   9.664E-03
  CGR           3          0          1   3.005E-03
  CGR           4          0          1   4.586E-04
  CGR           5          0          1   1.002E-04
  CGR           6          0          1   1.284E-05
  CGR           7          0          1   2.255E-06
  CGR           8          1          0   4.343E-07

    CGRSolver converged.

  ==> DFCorrGrad: Density-Fitted Correlated Gradients <==

    OpenMP threads:              1
    Integrals threads:           1
    Memory (MB):              3576
    Schwarz Cutoff:          0E+00
    Fitting Condition:       1E-12

   => Auxiliary Basis Set <=

  Basis Set: (DEF2-SV(P) AUX)
    Blend: DEF2-SV_P_-JKFIT
    Number of shells: 160
    Number of basis function: 480
    Number of Cartesian functions: 556
    Spherical Harmonics?: true
    Max angular momentum: 4

	-----------------------------------------------------------
	 ==================> DF-MP2 Energies <==================== 
	-----------------------------------------------------------
	 Reference Energy          =    -157.1587323379119994 [Eh]
	 Singles Energy            =      -0.0000000000000000 [Eh]
	 Same-Spin Energy          =      -0.1189023554013406 [Eh]
	 Opposite-Spin Energy      =      -0.3974781942860183 [Eh]
	 Correlation Energy        =      -0.5163805496873588 [Eh]
	 Total Energy              =    -157.6751128875993686 [Eh]
	-----------------------------------------------------------
	 ================> DF-SCS-MP2 Energies <================== 
	-----------------------------------------------------------
	 SCS Same-Spin Scale       =       0.3333333333333333 [-]
	 SCS Opposite-Spin Scale   =       1.2000000000000000 [-]
	 SCS Same-Spin Energy      =      -0.0396341184671135 [Eh]
	 SCS Opposite-Spin Energy  =      -0.4769738331432219 [Eh]
	 SCS Correlation Energy    =      -0.5166079516103355 [Eh]
	 SCS Total Energy          =    -157.6753402895223246 [Eh]
	-----------------------------------------------------------


  -Total Gradient:
     Atom            X                  Y                   Z
    ------   -----------------  -----------------  -----------------
       1       -0.001507611596    -0.000568330099    -0.000681815862
       2       -0.001254662820    -0.000402503283     0.001059689670
       3        0.001517940994     0.000573802197    -0.000618081085
       4        0.001548182599     0.000547538049     0.000124821394
       5        0.000121198150    -0.000062783069     0.000026663535
       6       -0.000108403784    -0.000457507720    -0.000285676538
       7       -0.000221675264    -0.000232922986     0.000034777267
       8       -0.000274912385     0.000026708981     0.000046744635
       9       -0.000288678347     0.000345714608     0.000328430686
      10        0.000062308542     0.000115248117    -0.000014731663
      11       -0.000305725516     0.000480211328     0.000141209252
      12        0.000371100348    -0.000054313911    -0.000212129481
      13        0.000288543749     0.000260563652     0.000146024143
      14        0.000052395331    -0.000571425866    -0.000095925952


*** tstop() called on Davids-iMac.local at Wed Nov  8 16:48:35 2017
Module time:
	user time   =       4.80 seconds =       0.08 minutes
	system time =       0.15 seconds =       0.00 minutes
	total time  =          5 seconds =       0.08 minutes
Total time:
	user time   =      10.16 seconds =       0.17 minutes
	system time =       0.33 seconds =       0.01 minutes
	total time  =         11 seconds =       0.18 minutes

			-----------------------------------------
			 OPTKING 2.0: for geometry optimizations 
			  - R.A. King,  Bethel University        
			-----------------------------------------

	Previous internal coordinate definitions found.
	---Fragment 1 Geometry and Gradient---
	 C          -0.8561516532       -1.9357621617       -2.3463715876
	 C          -1.1917981861        1.2207545829        2.6598061705
	 C           1.3990938483       -0.8210488685       -0.9141762334
	 C           0.7875755265        1.5844733097        0.5794623325
	 H          -1.6914538975       -0.5154313843       -3.6298880469
	 H          -0.2752040396       -3.5747008486       -3.5025602132
	 H          -2.3542475103       -2.5879405255       -1.0498953990
	 H          -3.0508225939        0.6880563895        1.8785278752
	 H          -1.4568836700        2.9767388603        3.7583577946
	 H          -0.6003462099       -0.2783004418        3.9886510930
	 H           2.1617250358       -2.2546814838        0.4041700187
	 H           2.9336653328       -0.4011722888       -2.2712621918
	 H           2.5511130807        2.3160743797        1.4324757852
	 H           0.1307447280        3.0548660559       -0.7552075216
	            -0.0015076116       -0.0005683301       -0.0006818159
	            -0.0012546628       -0.0004025033        0.0010596897
	             0.0015179410        0.0005738022       -0.0006180811
	             0.0015481826        0.0005475380        0.0001248214
	             0.0001211981       -0.0000627831        0.0000266635
	            -0.0001084038       -0.0004575077       -0.0002856765
	            -0.0002216753       -0.0002329230        0.0000347773
	            -0.0002749124        0.0000267090        0.0000467446
	            -0.0002886783        0.0003457146        0.0003284307
	             0.0000623085        0.0001152481       -0.0000147317
	            -0.0003057255        0.0004802113        0.0001412093
	             0.0003711003       -0.0000543139       -0.0002121295
	             0.0002885437        0.0002605637        0.0001460241
	             0.0000523953       -0.0005714259       -0.0000959260

	---Fragment 1 Intrafragment Coordinates---
	 - Coordinate -           - BOHR/RAD -       - ANG/DEG -
	 R(1,3)           =         2.894806	       1.531865
	 R(1,5)           =         2.088656	       1.105269
	 R(1,6)           =         2.088155	       1.105004
	 R(1,7)           =         2.085780	       1.103747
	 R(2,4)           =         2.894485	       1.531695
	 R(2,8)           =         2.085698	       1.103704
	 R(2,9)           =         2.088197	       1.105026
	 R(2,10)          =         2.088734	       1.105310
	 R(3,4)           =         2.896800	       1.532920
	 R(3,11)          =         2.091637	       1.106847
	 R(3,12)          =         2.091145	       1.106586
	 R(4,13)          =         2.091157	       1.106593
	 R(4,14)          =         2.091608	       1.106831
	 B(1,3,4)         =         1.993695	     114.230308
	 B(1,3,11)        =         1.909174	     109.387597
	 B(1,3,12)        =         1.904935	     109.144728
	 B(2,4,3)         =         1.993908	     114.242505
	 B(2,4,13)        =         1.904442	     109.116470
	 B(2,4,14)        =         1.909447	     109.403230
	 B(3,1,5)         =         1.932362	     110.716186
	 B(3,1,6)         =         1.938448	     111.064902
	 B(3,1,7)         =         1.952432	     111.866102
	 B(3,4,13)        =         1.899505	     108.833616
	 B(3,4,14)        =         1.897631	     108.726234
	 B(4,2,8)         =         1.952380	     111.863120
	 B(4,2,9)         =         1.938258	     111.053996
	 B(4,2,10)        =         1.932423	     110.719684
	 B(4,3,11)        =         1.897740	     108.732488
	 B(4,3,12)        =         1.899481	     108.832238
	 B(5,1,6)         =         1.880464	     107.742663
	 B(5,1,7)         =         1.883211	     107.900037
	 B(6,1,7)         =         1.873991	     107.371795
	 B(8,2,9)         =         1.874112	     107.378732
	 B(8,2,10)        =         1.883256	     107.902601
	 B(9,2,10)        =         1.880490	     107.744132
	 B(11,3,12)       =         1.853650	     106.206302
	 B(13,4,14)       =         1.853735	     106.211218
	 D(1,3,4,2)       =         1.077041	      61.709912
	 D(1,3,4,13)      =        -3.073120	    -176.076828
	 D(1,3,4,14)      =        -1.061059	     -60.794201
	 D(2,4,3,11)      =        -1.060641	     -60.770246
	 D(2,4,3,12)      =        -3.072646	    -176.049670
	 D(3,4,2,8)       =        -1.118307	     -64.074245
	 D(3,4,2,9)       =         3.071274	     175.971042
	 D(3,4,2,10)      =         0.982919	      56.317129
	 D(4,3,1,5)       =         0.976706	      55.961126
	 D(4,3,1,6)       =         3.065113	     175.618028
	 D(4,3,1,7)       =        -1.124456	     -64.426595
	 D(5,1,3,11)      =         3.108139	     178.083262
	 D(5,1,3,12)      =        -1.153806	     -66.108241
	 D(6,1,3,11)      =        -1.086639	     -62.259835
	 D(6,1,3,12)      =         0.934600	      53.548662
	 D(7,1,3,11)      =         1.006977	      57.695541
	 D(7,1,3,12)      =         3.028217	     173.504038
	 D(8,2,4,13)      =         3.034557	     173.867321
	 D(8,2,4,14)      =         1.013339	      58.060045
	 D(9,2,4,13)      =         0.940953	      53.912608
	 D(9,2,4,14)      =        -1.080266	     -61.894668
	 D(10,2,4,13)     =        -1.147402	     -65.741306
	 D(10,2,4,14)     =         3.114565	     178.451419
	 D(11,3,4,13)     =         1.072383	      61.443014
	 D(11,3,4,14)     =         3.084444	     176.725641
	 D(12,3,4,13)     =        -0.939623	     -53.836410
	 D(12,3,4,14)     =         1.072439	      61.446217

	Current energy   :      -157.6751128876

	Energy change for the previous step:
		Projected    :        -0.0024011092
		Actual       :        -0.0009041121

	Performing BFGS update.
	Previous computed or guess Hessian on step 1.
	Steps to be used in Hessian update: 1
	Taking RFO optimization step.
	Going to follow RFO solution 1.
	Using RFO vector 1.
	Norm of target step-size    0.07151
	Projected energy change by RFO approximation:         0.0001270858

	Back-transformation to cartesian coordinates...
	Successfully converged to displaced geometry.

	--- Internal Coordinate Step in ANG or DEG, aJ/ANG or AJ/DEG ---
	 ---------------------------------------------------------------------------
	   Coordinate                Previous        Force       Change         New 
	   ----------                --------       ------       ------       ------
	    1 R(1,3)          =      1.531865    -0.018903    -0.003353     1.528512
	    2 R(1,5)          =      1.105269     0.000886     0.000424     1.105693
	    3 R(1,6)          =      1.105004    -0.004013    -0.000426     1.104578
	    4 R(1,7)          =      1.103747    -0.002090    -0.000108     1.103639
	    5 R(2,4)          =      1.531695    -0.018214    -0.003220     1.528476
	    6 R(2,8)          =      1.103704    -0.001818    -0.000057     1.103646
	    7 R(2,9)          =      1.105026    -0.004121    -0.000445     1.104581
	    8 R(2,10)         =      1.105310     0.000613     0.000376     1.105686
	    9 R(3,4)          =      1.532920    -0.008746    -0.001632     1.531288
	   10 R(3,11)         =      1.106847     0.002897     0.000756     1.107603
	   11 R(3,12)         =      1.106586    -0.003288    -0.000306     1.106281
	   12 R(4,13)         =      1.106593    -0.003247    -0.000298     1.106294
	   13 R(4,14)         =      1.106831     0.002941     0.000767     1.107599
	   14 B(1,3,4)        =    114.230308    -0.000040    -0.104956   114.125351
	   15 B(1,3,11)       =    109.387597     0.000004     0.123710   109.511307
	   16 B(1,3,12)       =    109.144728     0.000008    -0.135830   109.008899
	   17 B(2,4,3)        =    114.242505    -0.000042    -0.113768   114.128736
	   18 B(2,4,13)       =    109.116470     0.000011    -0.113284   109.003186
	   19 B(2,4,14)       =    109.403230     0.000003     0.111197   109.514426
	   20 B(3,1,5)        =    110.716186     0.000012     0.038937   110.755123
	   21 B(3,1,6)        =    111.064902    -0.000024    -0.068924   110.995978
	   22 B(3,1,7)        =    111.866102    -0.000015    -0.055269   111.810832
	   23 B(3,4,13)       =    108.833616    -0.000003    -0.161499   108.672117
	   24 B(3,4,14)       =    108.726234     0.000043     0.330854   109.057089
	   25 B(4,2,8)        =    111.863120    -0.000013    -0.049845   111.813275
	   26 B(4,2,9)        =    111.053996    -0.000022    -0.058261   110.995736
	   27 B(4,2,10)       =    110.719684     0.000010     0.032844   110.752528
	   28 B(4,3,11)       =    108.732488     0.000041     0.326803   109.059292
	   29 B(4,3,12)       =    108.832238    -0.000002    -0.159586   108.672651
	   30 B(5,1,6)        =    107.742663     0.000007     0.028741   107.771404
	   31 B(5,1,7)        =    107.900037    -0.000000    -0.028136   107.871901
	   32 B(6,1,7)        =    107.371795     0.000021     0.089780   107.461575
	   33 B(8,2,9)        =    107.378732     0.000019     0.082994   107.461725
	   34 B(8,2,10)       =    107.902601    -0.000000    -0.030655   107.871946
	   35 B(9,2,10)       =    107.744132     0.000007     0.027487   107.771619
	   36 B(11,3,12)      =    106.206302    -0.000009    -0.048723   106.157579
	   37 B(13,4,14)      =    106.211218    -0.000010    -0.051808   106.159411
	   38 D(1,3,4,2)      =     61.709912     0.000004     1.616752    63.326664
	   39 D(1,3,4,13)     =   -176.076828     0.000001     1.273088  -174.803740
	   40 D(1,3,4,14)     =    -60.794201     0.000003     1.302375   -59.491826
	   41 D(2,4,3,11)     =    -60.770246     0.000002     1.283179   -59.487066
	   42 D(2,4,3,12)     =   -176.049670     0.000000     1.251390  -174.798280
	   43 D(3,4,2,8)      =    -64.074245    -0.000004    -0.781731   -64.855976
	   44 D(3,4,2,9)      =    175.971042    -0.000004    -0.813732   175.157310
	   45 D(3,4,2,10)     =     56.317129    -0.000005    -0.831714    55.485415
	   46 D(4,3,1,5)      =     55.961126    -0.000004    -0.406825    55.554301
	   47 D(4,3,1,6)      =    175.618028    -0.000004    -0.390236   175.227792
	   48 D(4,3,1,7)      =    -64.426595    -0.000004    -0.360571   -64.787166
	   49 D(5,1,3,11)     =    178.083262     0.000002     0.038314   178.121576
	   50 D(5,1,3,12)     =    -66.108241     0.000001    -0.027339   -66.135579
	   51 D(6,1,3,11)     =    -62.259835     0.000003     0.054903   -62.204933
	   52 D(6,1,3,12)     =     53.548662     0.000001    -0.010751    53.537911
	   53 D(7,1,3,11)     =     57.695541     0.000003     0.084568    57.780109
	   54 D(7,1,3,12)     =    173.504038     0.000002     0.018915   173.522954
	   55 D(8,2,4,13)     =    173.867321     0.000001    -0.410572   173.456748
	   56 D(8,2,4,14)     =     58.060045     0.000002    -0.346863    57.713183
	   57 D(9,2,4,13)     =     53.912608     0.000001    -0.442574    53.470034
	   58 D(9,2,4,14)     =    -61.894668     0.000002    -0.378864   -62.273532
	   59 D(10,2,4,13)    =    -65.741306     0.000001    -0.460555   -66.201861
	   60 D(10,2,4,14)    =    178.451419     0.000002    -0.396846   178.054573
	   61 D(11,3,4,13)    =     61.443014    -0.000001     0.939516    62.382530
	   62 D(11,3,4,14)    =    176.725641     0.000001     0.968802   177.694443
	   63 D(12,3,4,13)    =    -53.836410    -0.000004     0.907726   -52.928684
	   64 D(12,3,4,14)    =     61.446217    -0.000001     0.937013    62.383230
	 ---------------------------------------------------------------------------
	Successfully symmetrized geometry.

  ==> Convergence Check <==

  Measures of convergence in internal coordinates in au.
  Criteria marked as inactive (o), active & met (*), and active & unmet ( ).
  ---------------------------------------------------------------------------------------------
   Step     Total Energy     Delta E     MAX Force     RMS Force      MAX Disp      RMS Disp   
  ---------------------------------------------------------------------------------------------
    Convergence Criteria    1.00e-06 *    3.00e-04 *             o    1.20e-03 *             o
  ---------------------------------------------------------------------------------------------
      2    -157.67511289   -9.04e-04      2.29e-03      4.82e-04 o    2.82e-02      8.94e-03 o  ~
  ---------------------------------------------------------------------------------------------

	Writing optimization data to binary file.
	Structure for next step:
	Cartesian Geometry (in Angstrom)
	    C    -0.4452539283  -1.0266668695  -1.2441566468
	    C    -0.6293961023   0.6493037955   1.4082434118
	    C     0.7370375311  -0.4384761769  -0.4743727409
	    C     0.4057828733   0.8403581601   0.3000284664
	    H    -0.8784138316  -0.2758539613  -1.9306041829
	    H    -0.1305588307  -1.8952243189  -1.8496869395
	    H    -1.2466197581  -1.3682639826  -0.5665556608
	    H    -1.6156619565   0.3639682835   1.0033993468
	    H    -0.7654886386   1.5799670078   1.9874195906
	    H    -0.3093258544  -0.1418911899   2.1111716110
	    H     1.1331967849  -1.1956469892   0.2302793400
	    H     1.5567018019  -0.2202111611  -1.1845610464
	    H     1.3383945733   1.2378705412   0.7428669554
	    H     0.0489654009   1.6113219111  -0.4106548318
			--------------------------
			 OPTKING Finished Execution 
			--------------------------

    Structure for next step:
    Molecular point group: c1
    Full point group: C1

    Geometry (in Angstrom), charge = 0, multiplicity = 1:

    C           -0.444262777664    -1.026458263457    -1.244346483384
    C           -0.628404951752     0.649512401608     1.408053575172
    C            0.738028681653    -0.438267570812    -0.474562577505
    C            0.406774023895     0.840566766179     0.299838629798
    H           -0.877422680976    -0.275645355282    -1.930794019550
    H           -0.129567680087    -1.895015712836    -1.849876776107
    H           -1.245628607516    -1.368055376544    -0.566745497466
    H           -1.614670805947     0.364176889584     1.003209510206
    H           -0.764497488021     1.580175613880     1.987229753965
    H           -0.308334703804    -0.141682583803     2.110981774366
    H            1.134187935486    -1.195438383159     0.230089503346
    H            1.557692952509    -0.220002555024    -1.184750883000
    H            1.339385723915     1.238079147265     0.742677118738
    H            0.049956551535     1.611530517162    -0.410844668431

gradient() will perform analytic gradient computation.

*** tstart() called on Davids-iMac.local
*** at Wed Nov  8 16:48:35 2017

    SCF Algorithm Type (re)set to DF.

*** tstart() called on Davids-iMac.local
*** at Wed Nov  8 16:48:35 2017

   => Loading Basis Set <=

    Name: DEF2-SV(P)
    Role: ORBITAL
    Keyword: BASIS
    atoms 1-4  entry C          line    88 file /Users/bannanc/anaconda3/share/psi4/basis/def2-sv_p_.gbs 
    atoms 5-14 entry H          line    15 file /Users/bannanc/anaconda3/share/psi4/basis/def2-sv_p_.gbs 


         ---------------------------------------------------------
                                   SCF
            by Justin Turney, Rob Parrish, Andy Simmonett
                             and Daniel Smith
                              RHF Reference
                        1 Threads,   4768 MiB Core
         ---------------------------------------------------------

  ==> Geometry <==

    Molecular point group: c1
    Full point group: C1

    Geometry (in Angstrom), charge = 0, multiplicity = 1:

       Center              X                  Y                   Z               Mass       
    ------------   -----------------  -----------------  -----------------  -----------------
           C         -0.444262777664    -1.026458263457    -1.244346483384    12.000000000000
           C         -0.628404951752     0.649512401608     1.408053575172    12.000000000000
           C          0.738028681653    -0.438267570812    -0.474562577505    12.000000000000
           C          0.406774023895     0.840566766179     0.299838629798    12.000000000000
           H         -0.877422680976    -0.275645355282    -1.930794019550     1.007825032070
           H         -0.129567680087    -1.895015712836    -1.849876776107     1.007825032070
           H         -1.245628607516    -1.368055376544    -0.566745497466     1.007825032070
           H         -1.614670805947     0.364176889584     1.003209510206     1.007825032070
           H         -0.764497488021     1.580175613880     1.987229753965     1.007825032070
           H         -0.308334703804    -0.141682583803     2.110981774366     1.007825032070
           H          1.134187935486    -1.195438383159     0.230089503346     1.007825032070
           H          1.557692952509    -0.220002555024    -1.184750883000     1.007825032070
           H          1.339385723915     1.238079147265     0.742677118738     1.007825032070
           H          0.049956551535     1.611530517162    -0.410844668431     1.007825032070

  Running in c1 symmetry.

  Rotational constants: A =      0.43851  B =      0.15902  C =      0.13512 [cm^-1]
  Rotational constants: A =  13146.15935  B =   4767.31020  C =   4050.83505 [MHz]
  Nuclear repulsion =  132.017683586170477

  Charge       = 0
  Multiplicity = 1
  Electrons    = 34
  Nalpha       = 17
  Nbeta        = 17

  ==> Algorithm <==

  SCF Algorithm Type is DF.
  DIIS enabled.
  MOM disabled.
  Fractional occupation disabled.
  Guess Type is READ.
  Energy threshold   = 1.00e-10
  Density threshold  = 1.00e-10
  Integral threshold = 0.00e+00

  ==> Primary Basis <==

  Basis Set: DEF2-SV(P)
    Blend: DEF2-SV(P)
    Number of shells: 44
    Number of basis function: 76
    Number of Cartesian functions: 80
    Spherical Harmonics?: true
    Max angular momentum: 2

   => Loading Basis Set <=

    Name: (DEF2-SV(P) AUX)
    Role: JKFIT
    Keyword: DF_BASIS_SCF
    atoms 1-4  entry C          line   203 file /Users/bannanc/anaconda3/share/psi4/basis/def2-sv_p_-jkfit.gbs 
    atoms 5-14 entry H          line    23 file /Users/bannanc/anaconda3/share/psi4/basis/def2-sv_p_-jkfit.gbs 

  Reading orbitals from file 180, no projection.

  ==> Pre-Iterations <==

   -------------------------------------------------------
    Irrep   Nso     Nmo     Nalpha   Nbeta   Ndocc  Nsocc
   -------------------------------------------------------
     A         76      76       0       0       0       0
   -------------------------------------------------------
    Total      76      76      17      17      17       0
   -------------------------------------------------------

  ==> Integral Setup <==

  ==> DFJK: Density-Fitted J/K Matrices <==

    J tasked:                  Yes
    K tasked:                  Yes
    wK tasked:                  No
    OpenMP threads:              1
    Integrals threads:           1
    Memory (MB):              3576
    Algorithm:                Core
    Integral Cache:           NONE
    Schwarz Cutoff:          1E-12
    Fitting Condition:       1E-12

   => Auxiliary Basis Set <=

  Basis Set: (DEF2-SV(P) AUX)
    Blend: DEF2-SV_P_-JKFIT
    Number of shells: 160
    Number of basis function: 480
    Number of Cartesian functions: 556
    Spherical Harmonics?: true
    Max angular momentum: 4

  Minimum eigenvalue in the overlap matrix is 2.7276950373E-03.
  Using Symmetric Orthogonalization.

  SCF Guess: Orbitals guess was supplied from a previous computation.

  ==> Iterations <==

                           Total Energy        Delta E     RMS |[F,P]|

   @DF-RHF iter   0:  -157.16118488890194   -1.57161e+02   2.89878e-04 
   @DF-RHF iter   1:  -157.15876184268089    2.42305e-03   5.23165e-05 
   @DF-RHF iter   2:  -157.15877718040426   -1.53377e-05   1.69437e-05 DIIS
   @DF-RHF iter   3:  -157.15877917431700   -1.99391e-06   2.60085e-06 DIIS
   @DF-RHF iter   4:  -157.15877920571265   -3.13956e-08   6.66633e-07 DIIS
   @DF-RHF iter   5:  -157.15877920860498   -2.89234e-09   1.45692e-07 DIIS
   @DF-RHF iter   6:  -157.15877920875249   -1.47509e-10   2.58926e-08 DIIS
   @DF-RHF iter   7:  -157.15877920875724   -4.74643e-12   8.90739e-09 DIIS
   @DF-RHF iter   8:  -157.15877920875755   -3.12639e-13   1.89497e-09 DIIS
   @DF-RHF iter   9:  -157.15877920875761   -5.68434e-14   4.03354e-10 DIIS
   @DF-RHF iter  10:  -157.15877920875730    3.12639e-13   7.09283e-11 DIIS

  ==> Post-Iterations <==

    Orbital Energies (a.u.)
    -----------------------

    Doubly Occupied:                                                      

       1A    -11.219502     2A    -11.218967     3A    -11.214572  
       4A    -11.214553     5A     -1.060731     6A     -0.964726  
       7A     -0.862397     8A     -0.765893     9A     -0.625280  
      10A     -0.621025    11A     -0.574984    12A     -0.535881  
      13A     -0.534279    14A     -0.505938    15A     -0.464017  
      16A     -0.461715    17A     -0.460997  

    Virtual:                                                              

      18A      0.171875    19A      0.213031    20A      0.216377  
      21A      0.223730    22A      0.256370    23A      0.270009  
      24A      0.282370    25A      0.285489    26A      0.292072  
      27A      0.309705    28A      0.387049    29A      0.397414  
      30A      0.441413    31A      0.582592    32A      0.598775  
      33A      0.625422    34A      0.630533    35A      0.632104  
      36A      0.698456    37A      0.762461    38A      0.881228  
      39A      0.881608    40A      0.898752    41A      0.922118  
      42A      0.941309    43A      0.948585    44A      0.950768  
      45A      0.960747    46A      0.964590    47A      0.983203  
      48A      0.988495    49A      0.993567    50A      1.003958  
      51A      1.005317    52A      1.015858    53A      1.052282  
      54A      1.227678    55A      1.318268    56A      1.348964  
      57A      1.706172    58A      1.719001    59A      1.950077  
      60A      1.969542    61A      2.115996    62A      2.189440  
      63A      2.231989    64A      2.243414    65A      2.272646  
      66A      2.364353    67A      2.372807    68A      2.486613  
      69A      2.511596    70A      2.558199    71A      2.601467  
      72A      2.656216    73A      2.707983    74A      2.914396  
      75A      2.924443    76A      3.028958  

    Final Occupation by Irrep:
              A 
    DOCC [    17 ]

  Energy converged.

  @DF-RHF Final Energy:  -157.15877920875730

   => Energetics <=

    Nuclear Repulsion Energy =            132.0176835861704774
    One-Electron Energy =                -471.7420127195593977
    Two-Electron Energy =                 182.5655499246315969
    Total Energy =                       -157.1587792087572950



Properties will be evaluated at   0.000000,   0.000000,   0.000000 Bohr

Properties computed using the SCF density matrix

  Nuclear Dipole Moment: (a.u.)
     X:    -0.8052      Y:    -0.2830      Z:     0.1230

  Electronic Dipole Moment: (a.u.)
     X:     0.8239      Y:     0.2896      Z:    -0.1258

  Dipole Moment: (a.u.)
     X:     0.0187      Y:     0.0066      Z:    -0.0028     Total:     0.0200

  Dipole Moment: (Debye)
     X:     0.0474      Y:     0.0167      Z:    -0.0072     Total:     0.0508


*** tstop() called on Davids-iMac.local at Wed Nov  8 16:48:36 2017
Module time:
	user time   =       1.28 seconds =       0.02 minutes
	system time =       0.04 seconds =       0.00 minutes
	total time  =          1 seconds =       0.02 minutes
Total time:
	user time   =      11.46 seconds =       0.19 minutes
	system time =       0.37 seconds =       0.01 minutes
	total time  =         12 seconds =       0.20 minutes

  //>>>>>>>>>>>>>>>>>>>>>>>>>>>>>>>>>>>//
  //               DFMP2               //
  //<<<<<<<<<<<<<<<<<<<<<<<<<<<<<<<<<<<//

   => Loading Basis Set <=

    Name: DEF2-SV(P)-RI
    Role: RIFIT
    Keyword: DF_BASIS_MP2
    atoms 1-4  entry C          line   153 file /Users/bannanc/anaconda3/share/psi4/basis/def2-sv_p_-ri.gbs 
    atoms 5-14 entry H          line    22 file /Users/bannanc/anaconda3/share/psi4/basis/def2-sv_p_-ri.gbs 

	 --------------------------------------------------------
	                          DF-MP2                         
	      2nd-Order Density-Fitted Moller-Plesset Theory     
	              RMP2 Wavefunction,   1 Threads             
	                                                         
	        Rob Parrish, Justin Turney, Andy Simmonett,      
	           Ed Hohenstein, and C. David Sherrill          
	 --------------------------------------------------------

   => Auxiliary Basis Set <=

  Basis Set: DEF2-SV(P)-RI
    Blend: DEF2-SV(P)-RI
    Number of shells: 124
    Number of basis function: 332
    Number of Cartesian functions: 370
    Spherical Harmonics?: true
    Max angular momentum: 3

	 --------------------------------------------------------
	                 NBF =    76, NAUX =   332
	 --------------------------------------------------------
	   CLASS    FOCC     OCC    AOCC    AVIR     VIR    FVIR
	   PAIRS       4      17      13      59      59       0
	 --------------------------------------------------------


         ------------------------------------------------------------
                                     CPHF                           
                                  Rob Parrish                       
         ------------------------------------------------------------

  ==> Geometry <==

    Molecular point group: c1
    Full point group: C1

    Geometry (in Angstrom), charge = 0, multiplicity = 1:

       Center              X                  Y                   Z               Mass       
    ------------   -----------------  -----------------  -----------------  -----------------
           C         -0.444262777664    -1.026458263457    -1.244346483384    12.000000000000
           C         -0.628404951752     0.649512401608     1.408053575172    12.000000000000
           C          0.738028681653    -0.438267570812    -0.474562577505    12.000000000000
           C          0.406774023895     0.840566766179     0.299838629798    12.000000000000
           H         -0.877422680976    -0.275645355282    -1.930794019550     1.007825032070
           H         -0.129567680087    -1.895015712836    -1.849876776107     1.007825032070
           H         -1.245628607516    -1.368055376544    -0.566745497466     1.007825032070
           H         -1.614670805947     0.364176889584     1.003209510206     1.007825032070
           H         -0.764497488021     1.580175613880     1.987229753965     1.007825032070
           H         -0.308334703804    -0.141682583803     2.110981774366     1.007825032070
           H          1.134187935486    -1.195438383159     0.230089503346     1.007825032070
           H          1.557692952509    -0.220002555024    -1.184750883000     1.007825032070
           H          1.339385723915     1.238079147265     0.742677118738     1.007825032070
           H          0.049956551535     1.611530517162    -0.410844668431     1.007825032070

  Nuclear repulsion =  132.017683586170477
  Reference energy  = -157.158779208757295

  ==> Basis Set <==

  Basis Set: DEF2-SV(P)
    Blend: DEF2-SV(P)
    Number of shells: 44
    Number of basis function: 76
    Number of Cartesian functions: 80
    Spherical Harmonics?: true
    Max angular momentum: 2

  ==> CGRSolver (by Rob Parrish) <==

   Number of roots    =         1
   Preconditioning    =    JACOBI
   Convergence cutoff =     1E-06
   Maximum iterations =       100

  ==> CPHFRHamiltonian (by Rob Parrish) <== 

  ==> DFJK: Density-Fitted J/K Matrices <==

    J tasked:                  Yes
[...]
   => Auxiliary Basis Set <=

  Basis Set: (DEF2-SV(P) AUX)
    Blend: DEF2-SV_P_-JKFIT
    Number of shells: 160
    Number of basis function: 480
    Number of Cartesian functions: 556
    Spherical Harmonics?: true
    Max angular momentum: 4

  ==> CPHF Iterations <==

  => Iterations <=

             Iter  Converged  Remaining    Residual
  CGR           1          0          1   9.808E-02
  CGR           2          0          1   9.711E-03
  CGR           3          0          1   3.018E-03
  CGR           4          0          1   4.584E-04
  CGR           5          0          1   1.009E-04
  CGR           6          0          1   1.299E-05
  CGR           7          0          1   2.300E-06
  CGR           8          1          0   4.415E-07

    CGRSolver converged.

  ==> DFCorrGrad: Density-Fitted Correlated Gradients <==

    OpenMP threads:              1
    Integrals threads:           1
    Memory (MB):              3576
    Schwarz Cutoff:          0E+00
    Fitting Condition:       1E-12

   => Auxiliary Basis Set <=

  Basis Set: (DEF2-SV(P) AUX)
    Blend: DEF2-SV_P_-JKFIT
    Number of shells: 160
    Number of basis function: 480
    Number of Cartesian functions: 556
    Spherical Harmonics?: true
    Max angular momentum: 4

	-----------------------------------------------------------
	 ==================> DF-MP2 Energies <==================== 
	-----------------------------------------------------------
	 Reference Energy          =    -157.1587877853872328 [Eh]
	 Singles Energy            =      -0.0000000000000000 [Eh]
	 Same-Spin Energy          =      -0.1189480562985345 [Eh]
	 Opposite-Spin Energy      =      -0.3974075728153943 [Eh]
	 Correlation Energy        =      -0.5163556291139288 [Eh]
	 Total Energy              =    -157.6751434145011501 [Eh]
	-----------------------------------------------------------
	 ================> DF-SCS-MP2 Energies <================== 
	-----------------------------------------------------------
	 SCS Same-Spin Scale       =       0.3333333333333333 [-]
	 SCS Opposite-Spin Scale   =       1.2000000000000000 [-]
	 SCS Same-Spin Energy      =      -0.0396493520995115 [Eh]
	 SCS Opposite-Spin Energy  =      -0.4768890873784732 [Eh]
	 SCS Correlation Energy    =      -0.5165384394779847 [Eh]
	 SCS Total Energy          =    -157.6753262248652163 [Eh]
	-----------------------------------------------------------


  -Total Gradient:
     Atom            X                  Y                   Z
    ------   -----------------  -----------------  -----------------
       1       -0.000036638983    -0.000023719861    -0.000029306579
       2       -0.000033794700     0.000002615778     0.000036670233
       3        0.000005666426     0.000028153236     0.000030447712
       4        0.000013340601    -0.000019355700    -0.000031670956
       5        0.000003471088     0.000023731479    -0.000011892415
       6        0.000014790123    -0.000009655523    -0.000006326481
       7       -0.000009119440    -0.000004888086     0.000028116036
       8       -0.000021425548    -0.000005321529    -0.000023364935
       9        0.000008245482     0.000017614803     0.000003272073
      10        0.000020336469    -0.000019416245     0.000010681573
      11        0.000009122615    -0.000033569132     0.000025375259
      12        0.000018333415     0.000008086889    -0.000033939163
      13        0.000027105190     0.000009091598     0.000025476094
      14       -0.000019432738     0.000026632296    -0.000023538451


*** tstop() called on Davids-iMac.local at Wed Nov  8 16:48:51 2017
Module time:
	user time   =       4.78 seconds =       0.08 minutes
	system time =       0.14 seconds =       0.00 minutes
	total time  =          6 seconds =       0.10 minutes
Total time:
	user time   =      24.57 seconds =       0.41 minutes
	system time =       0.77 seconds =       0.01 minutes
	total time  =         27 seconds =       0.45 minutes

			-----------------------------------------
			 OPTKING 2.0: for geometry optimizations 
			  - R.A. King,  Bethel University        
			-----------------------------------------

	Previous internal coordinate definitions found.
	---Fragment 1 Geometry and Gradient---
	 C          -0.8427200006       -1.9412589379       -2.3407419344
	 C          -1.1936992343        1.2258234525        2.6514593391
	 C           1.3981604464       -0.8240448882       -0.9019550437
	 C           0.7754811569        1.5876884028        0.5702996185
	 H          -1.6723977864       -0.5255067513       -3.6335365843
	 H          -0.2532668647       -3.5820724041       -3.4875682322
	 H          -2.3480169997       -2.5883591267       -1.0508526766
	 H          -3.0537270204        0.6910266176        1.8750553624
	 H          -1.4549713181        2.9817235234        3.7484960693
	 H          -0.5997296968       -0.2729439050        3.9799896594
	 H           2.1606543334       -2.2535172179        0.4225347454
	 H           2.9367627893       -0.4059962316       -2.2539362958
	 H           2.5363263804        2.3288563741        1.4188270544
	 H           0.1144829511        3.0527843758       -0.7697036799
	            -0.0000366390       -0.0000237199       -0.0000293066
	            -0.0000337947        0.0000026158        0.0000366702
	             0.0000056664        0.0000281532        0.0000304477
	             0.0000133406       -0.0000193557       -0.0000316710
	             0.0000034711        0.0000237315       -0.0000118924
	             0.0000147901       -0.0000096555       -0.0000063265
	            -0.0000091194       -0.0000048881        0.0000281160
	            -0.0000214255       -0.0000053215       -0.0000233649
	             0.0000082455        0.0000176148        0.0000032721
	             0.0000203365       -0.0000194162        0.0000106816
	             0.0000091226       -0.0000335691        0.0000253753
	             0.0000183334        0.0000080869       -0.0000339392
	             0.0000271052        0.0000090916        0.0000254761
	            -0.0000194327        0.0000266323       -0.0000235385

	---Fragment 1 Intrafragment Coordinates---
	 - Coordinate -           - BOHR/RAD -       - ANG/DEG -
	 R(1,3)           =         2.887875	       1.528197
	 R(1,5)           =         2.089028	       1.105466
	 R(1,6)           =         2.086848	       1.104312
	 R(1,7)           =         2.085299	       1.103493
	 R(2,4)           =         2.887879	       1.528200
	 R(2,8)           =         2.085309	       1.103498
	 R(2,9)           =         2.086849	       1.104313
	 R(2,10)          =         2.089042	       1.105473
	 R(3,4)           =         2.893393	       1.531117
	 R(3,11)          =         2.092621	       1.107367
	 R(3,12)          =         2.090434	       1.106210
	 R(4,13)          =         2.090432	       1.106209
	 R(4,14)          =         2.092614	       1.107364
	 B(1,3,4)         =         1.992132	     114.140749
	 B(1,3,11)        =         1.911139	     109.500194
	 B(1,3,12)        =         1.903151	     109.042511
	 B(2,4,3)         =         1.992146	     114.141540
	 B(2,4,13)        =         1.903158	     109.042935
	 B(2,4,14)        =         1.911142	     109.500364
	 B(3,1,5)         =         1.932984	     110.751844
	 B(3,1,6)         =         1.937771	     111.026074
	 B(3,1,7)         =         1.951968	     111.839525
	 B(3,4,13)        =         1.897365	     108.710979
	 B(3,4,14)        =         1.902575	     109.009502
	 B(4,2,8)         =         1.951996	     111.841119
	 B(4,2,9)         =         1.937755	     111.025193
	 B(4,2,10)        =         1.932988	     110.752028
	 B(4,3,11)        =         1.902595	     109.010685
	 B(4,3,12)        =         1.897362	     108.710841
	 B(5,1,6)         =         1.880684	     107.755239
	 B(5,1,7)         =         1.882212	     107.842821
	 B(6,1,7)         =         1.875320	     107.447937
	 B(8,2,9)         =         1.875321	     107.447979
	 B(8,2,10)        =         1.882198	     107.842000
	 B(9,2,10)        =         1.880681	     107.755057
	 B(11,3,12)       =         1.852268	     106.127136
	 B(13,4,14)       =         1.852261	     106.126710
	 D(1,3,4,2)       =         1.089066	      62.398896
	 D(1,3,4,13)      =        -3.065547	    -175.642920
	 D(1,3,4,14)      =        -1.053731	     -60.374326
	 D(2,4,3,11)      =        -1.053733	     -60.374444
	 D(2,4,3,12)      =        -3.065568	    -175.644106
	 D(3,4,2,8)       =        -1.127360	     -64.592956
	 D(3,4,2,9)       =         3.061288	     175.398861
	 D(3,4,2,10)      =         0.972651	      55.728797
	 D(4,3,1,5)       =         0.972855	      55.740492
	 D(4,3,1,6)       =         3.061504	     175.411240
	 D(4,3,1,7)       =        -1.127153	     -64.581104
	 D(5,1,3,11)      =         3.110995	     178.246861
	 D(5,1,3,12)      =        -1.152512	     -66.034071
	 D(6,1,3,11)      =        -1.083542	     -62.082392
	 D(6,1,3,12)      =         0.936137	      53.636677
	 D(7,1,3,11)      =         1.010987	      57.925264
	 D(7,1,3,12)      =         3.030665	     173.644333
	 D(8,2,4,13)      =         3.030440	     173.631448
	 D(8,2,4,14)      =         1.010765	      57.912558
	 D(9,2,4,13)      =         0.935903	      53.623265
	 D(9,2,4,14)      =        -1.083773	     -62.095625
	 D(10,2,4,13)     =        -1.152734	     -66.046798
	 D(10,2,4,14)     =         3.110776	     178.234312
	 D(11,3,4,13)     =         1.074839	      61.583740
	 D(11,3,4,14)     =         3.086656	     176.852334
	 D(12,3,4,13)     =        -0.936996	     -53.685921
	 D(12,3,4,14)     =         1.074820	      61.582673

	Current energy   :      -157.6751434145

	Energy change for the previous step:
		Projected    :        -0.0000161232
		Actual       :        -0.0000075736

	Performing BFGS update.
	Previous computed or guess Hessian on step 1.
	Steps to be used in Hessian update: 4 3
	Taking RFO optimization step.
	Going to follow RFO solution 1.
	Using RFO vector 1.
	Norm of target step-size    0.00176
	Projected energy change by RFO approximation:        -0.0000002229

	Back-transformation to cartesian coordinates...
	Successfully converged to displaced geometry.

	--- Internal Coordinate Step in ANG or DEG, aJ/ANG or AJ/DEG ---
	 ---------------------------------------------------------------------------
	   Coordinate                Previous        Force       Change         New 
	   ----------                --------       ------       ------       ------
	    1 R(1,3)          =      1.528197    -0.000302    -0.000074     1.528123
	    2 R(1,5)          =      1.105466    -0.000182    -0.000033     1.105433
	    3 R(1,6)          =      1.104312    -0.000126    -0.000026     1.104287
	    4 R(1,7)          =      1.103493    -0.000210    -0.000038     1.103455
	    5 R(2,4)          =      1.528200    -0.000316    -0.000076     1.528123
	    6 R(2,8)          =      1.103498    -0.000240    -0.000043     1.103455
	    7 R(2,9)          =      1.104313    -0.000128    -0.000026     1.104287
	    8 R(2,10)         =      1.105473    -0.000218    -0.000040     1.105433
	    9 R(3,4)          =      1.531117    -0.000081    -0.000026     1.531092
	   10 R(3,11)         =      1.107367    -0.000349    -0.000063     1.107304
	   11 R(3,12)         =      1.106210    -0.000305    -0.000056     1.106154
	   12 R(4,13)         =      1.106209    -0.000300    -0.000056     1.106153
	   13 R(4,14)         =      1.107364    -0.000328    -0.000060     1.107304
	   14 B(1,3,4)        =    114.140749     0.000000     0.002233   114.142983
	   15 B(1,3,11)       =    109.500194     0.000000     0.002564   109.502758
	   16 B(1,3,12)       =    109.042511     0.000000     0.005540   109.048051
	   17 B(2,4,3)        =    114.141540     0.000000     0.001645   114.143184
	   18 B(2,4,13)       =    109.042935     0.000000     0.004975   109.047910
	   19 B(2,4,14)       =    109.500364     0.000000     0.002353   109.502717
	   20 B(3,1,5)        =    110.751844     0.000001     0.005703   110.757547
	   21 B(3,1,6)        =    111.026074     0.000001     0.003891   111.029965
	   22 B(3,1,7)        =    111.839525     0.000001     0.005633   111.845158
	   23 B(3,4,13)       =    108.710979    -0.000000    -0.001459   108.709520
	   24 B(3,4,14)       =    109.009502    -0.000000    -0.002751   109.006752
	   25 B(4,2,8)        =    111.841119     0.000001     0.004178   111.845297
	   26 B(4,2,9)        =    111.025193     0.000001     0.004759   111.029953
	   27 B(4,2,10)       =    110.752028     0.000001     0.005614   110.757642
	   28 B(4,3,11)       =    109.010685    -0.000000    -0.003822   109.006863
	   29 B(4,3,12)       =    108.710841    -0.000000    -0.001464   108.709378
	   30 B(5,1,6)        =    107.755239    -0.000001    -0.003707   107.751532
	   31 B(5,1,7)        =    107.842821    -0.000001    -0.007323   107.835498
	   32 B(6,1,7)        =    107.447937    -0.000001    -0.005127   107.442810
	   33 B(8,2,9)        =    107.447979    -0.000001    -0.005165   107.442815
	   34 B(8,2,10)       =    107.842000    -0.000001    -0.006704   107.835296
	   35 B(9,2,10)       =    107.755057    -0.000001    -0.003565   107.751492
	   36 B(11,3,12)      =    106.127136    -0.000000    -0.005680   106.121456
	   37 B(13,4,14)      =    106.126710    -0.000000    -0.005323   106.121387
	   38 D(1,3,4,2)      =     62.398896    -0.000000     0.020589    62.419485
	   39 D(1,3,4,13)     =   -175.642920     0.000000     0.027040  -175.615880
	   40 D(1,3,4,14)     =    -60.374326    -0.000000     0.018460   -60.355866
	   41 D(2,4,3,11)     =    -60.374444    -0.000000     0.018582   -60.355862
	   42 D(2,4,3,12)     =   -175.644106     0.000000     0.028164  -175.615941
	   43 D(3,4,2,8)      =    -64.592956     0.000000     0.021083   -64.571874
	   44 D(3,4,2,9)      =    175.398861     0.000000     0.021568   175.420429
	   45 D(3,4,2,10)     =     55.728797    -0.000000     0.019231    55.748028
	   46 D(4,3,1,5)      =     55.740492    -0.000000     0.007624    55.748116
	   47 D(4,3,1,6)      =    175.411240     0.000000     0.009272   175.420512
	   48 D(4,3,1,7)      =    -64.581104     0.000000     0.009222   -64.571882
	   49 D(5,1,3,11)     =    178.246861    -0.000000     0.006160   178.253021
	   50 D(5,1,3,12)     =    -66.034071    -0.000000     0.003882   -66.030189
	   51 D(6,1,3,11)     =    -62.082392     0.000000     0.007808   -62.074583
	   52 D(6,1,3,12)     =     53.636677     0.000000     0.005530    53.642207
	   53 D(7,1,3,11)     =     57.925264    -0.000000     0.007758    57.933023
	   54 D(7,1,3,12)     =    173.644333    -0.000000     0.005480   173.649813
	   55 D(8,2,4,13)     =    173.631448     0.000000     0.018156   173.649604
	   56 D(8,2,4,14)     =     57.912558     0.000000     0.020439    57.932998
	   57 D(9,2,4,13)     =     53.623265     0.000000     0.018641    53.641906
	   58 D(9,2,4,14)     =    -62.095625     0.000000     0.020925   -62.074700
	   59 D(10,2,4,13)    =    -66.046798    -0.000000     0.016304   -66.030495
	   60 D(10,2,4,14)    =    178.234312    -0.000000     0.018587   178.252899
	   61 D(11,3,4,13)    =     61.583740     0.000000     0.025033    61.608773
	   62 D(11,3,4,14)    =    176.852334    -0.000000     0.016453   176.868787
	   63 D(12,3,4,13)    =    -53.685921     0.000000     0.034615   -53.651306
	   64 D(12,3,4,14)    =     61.582673     0.000000     0.026035    61.608708
	 ---------------------------------------------------------------------------
	Successfully symmetrized geometry.

  ==> Convergence Check <==

  Measures of convergence in internal coordinates in au.
  Criteria marked as inactive (o), active & met (*), and active & unmet ( ).
  ---------------------------------------------------------------------------------------------
   Step     Total Energy     Delta E     MAX Force     RMS Force      MAX Disp      RMS Disp   
  ---------------------------------------------------------------------------------------------
    Convergence Criteria    1.00e-06 *    3.00e-04 *             o    1.20e-03 *             o
  ---------------------------------------------------------------------------------------------
      5    -157.67514341   -7.57e-06      4.23e-05 *    1.53e-05 o    6.04e-04 *    2.20e-04 o  ~
  ---------------------------------------------------------------------------------------------


  **** Optimization is complete! (in 5 steps) ****

  ==> Optimization Summary <==

  Measures of convergence in internal coordinates in au.
  --------------------------------------------------------------------------------------------------------------- ~
   Step         Total Energy             Delta E       MAX Force       RMS Force        MAX Disp        RMS Disp  ~
  --------------------------------------------------------------------------------------------------------------- ~
      1    -157.674208775528   -157.674208775528      0.00704947      0.00299566      0.03549278      0.01517986  ~
      2    -157.675112887599     -0.000904112071      0.00229442      0.00048166      0.02821765      0.00893927  ~
      3    -157.675137962896     -0.000025075297      0.00023075      0.00009598      0.03202608      0.01219813  ~
      4    -157.675135840864      0.000002122032      0.00047798      0.00016269      0.01712785      0.00649012  ~
      5    -157.675143414501     -0.000007573637      0.00004232      0.00001528      0.00060414      0.00022007  ~
  --------------------------------------------------------------------------------------------------------------- ~

	Writing optimization data to binary file.
	Final energy is   -157.6751434145012
	Final (previous) structure:
	Cartesian Geometry (in Angstrom)
	    C    -0.4459482175  -1.0272699859  -1.2386672829
	    C    -0.6316784287   0.6486778328   1.4030918518
	    C     0.7398746422  -0.4360657737  -0.4772940523
	    C     0.4103669539   0.8401685171   0.3017895602
	    H    -0.8849947923  -0.2780861957  -1.9227847470
	    H    -0.1340230525  -1.8955510757  -1.8455416219
	    H    -1.2425170816  -1.3697006575  -0.5560872861
	    H    -1.6159627404   0.3656755366   0.9922365626
	    H    -0.7699376607   1.5778601309   1.9836186864
	    H    -0.3173632868  -0.1444356937   2.1061198182
	    H     1.1433690289  -1.1925099509   0.2235957571
	    H     1.5540679351  -0.2148439525  -1.1927317173
	    H     1.3421661141   1.2323777152   0.7508109401
	    H     0.0605817685   1.6154639144  -0.4073096448
	Saving final (previous) structure.
	Removing binary optimization data file.
			--------------------------
			 OPTKING Finished Execution 
			--------------------------

    Final optimized geometry and variables:
    Molecular point group: c1
    Full point group: C1

    Geometry (in Angstrom), charge = 0, multiplicity = 1:

    C           -0.445948217538    -1.027269985893    -1.238667282854
    C           -0.631678428717     0.648677832835     1.403091851775
    C            0.739874642193    -0.436065773694    -0.477294052313
    C            0.410366953916     0.840168517104     0.301789560189
    H           -0.884994792255    -0.278086195731    -1.922784747015
    H           -0.134023052473    -1.895551075748    -1.845541621861
    H           -1.242517081637    -1.369700657483    -0.556087286052
    H           -1.615962740442     0.365675536558     0.992236562649
    H           -0.769937660711     1.577860130914     1.983618686384
    H           -0.317363286839    -0.144435693735     2.106119818164
    H            1.143369028901    -1.192509950874     0.223595757101
    H            1.554067935142    -0.214843952512    -1.192731717333
    H            1.342166114050     1.232377715243     0.750810940145
    H            0.060581768472     1.615463914436    -0.407309644788

	Removing binary optimization data file.
	Cleaning optimization helper files.

*** Psi4 exiting successfully. Buy a developer a beer!
