
    -----------------------------------------------------------------------
          Psi4: An Open-Source Ab Initio Electronic Structure Package
                               Psi4 1.2.1 release

                         Git: Rev {HEAD} 406f4de 


    R. M. Parrish, L. A. Burns, D. G. A. Smith, A. C. Simmonett,
    A. E. DePrince III, E. G. Hohenstein, U. Bozkaya, A. Yu. Sokolov,
    R. Di Remigio, R. M. Richard, J. F. Gonthier, A. M. James,
    H. R. McAlexander, A. Kumar, M. Saitow, X. Wang, B. P. Pritchard,
    P. Verma, H. F. Schaefer III, K. Patkowski, R. A. King, E. F. Valeev,
    F. A. Evangelista, J. M. Turney, T. D. Crawford, and C. D. Sherrill,
    J. Chem. Theory Comput. 13(7) pp 3185--3197 (2017).
    (doi: 10.1021/acs.jctc.7b00174)


                         Additional Contributions by
    P. Kraus, H. Kruse, M. H. Lechner, M. C. Schieber, and R. A. Shaw

    -----------------------------------------------------------------------


    Psi4 started on: Friday, 14 December 2018 04:39PM

    Process ID: 7256
    Host:       cassandra
    PSIDATADIR: /home/limvt/local/lib/miniconda3/envs/p4env/share/psi4
    Memory:     500.0 MiB
    Threads:    1
    
  ==> Input File <==

--------------------------------------------------------------------------
memory 5.0 Gb
molecule AlkEthOH_c1008_1 {
  0 1
  C     0.4020    -0.7274      0.7094
  C     2.5434     1.6212      2.9184
  C     1.6360    -0.1809      1.4096
  C     1.3154     1.0866      2.1991
  H    -0.0135     0.0088      0.0139
  H     0.6561    -1.6272      0.1405
  H    -0.3744    -0.9922      1.4342
  H     2.9450     0.8780      3.6147
  H     2.2869     2.5184      3.4903
  H     3.3312     1.8859      2.2059
  H     2.0363    -0.9484      2.0824
  H     2.4100     0.0313      0.6629
  H     0.9298     1.8588      1.5230
  H     0.5300     0.8786      2.9349
  units angstrom
}

set scf_type df
set guess sad
set df_basis_mp2 def2-sv_p_-ri

set basis def2-sv(p)
set freeze_core True
optimize('mp2')

--------------------------------------------------------------------------

  Memory set to   4.657 GiB by Python driver.
gradient() will perform analytic gradient computation.

*** tstart() called on cassandra
*** at Fri Dec 14 16:39:54 2018


*** tstart() called on cassandra
*** at Fri Dec 14 16:39:54 2018

   => Loading Basis Set <=

    Name: DEF2-SV(P)
    Role: ORBITAL
    Keyword: BASIS
    atoms 1-4  entry C          line    88 file /home/limvt/local/lib/miniconda3/envs/p4env/share/psi4/basis/def2-sv_p_.gbs 
    atoms 5-14 entry H          line    15 file /home/limvt/local/lib/miniconda3/envs/p4env/share/psi4/basis/def2-sv_p_.gbs 


         ---------------------------------------------------------
                                   SCF
            by Justin Turney, Rob Parrish, Andy Simmonett
                             and Daniel Smith
                              RHF Reference
                        1 Threads,   4768 MiB Core
         ---------------------------------------------------------

  ==> Geometry <==

    Molecular point group: c1
    Full point group: C1

    Geometry (in Angstrom), charge = 0, multiplicity = 1:

       Center              X                  Y                   Z               Mass       
    ------------   -----------------  -----------------  -----------------  -----------------
         C           -1.072120176742    -1.177157868046    -1.099923690500    12.000000000000
         C            1.069279823258     1.171442131954     1.109076309500    12.000000000000
         C            0.161879823258    -0.630657868046    -0.399723690500    12.000000000000
         C           -0.158720176742     0.636842131954     0.389776309500    12.000000000000
         H           -1.487620176742    -0.440957868046    -1.795423690500     1.007825032070
         H           -0.818020176742    -2.076957868046    -1.668823690500     1.007825032070
         H           -1.848520176742    -1.441957868046    -0.375123690500     1.007825032070
         H            1.470879823258     0.428242131954     1.805376309500     1.007825032070
         H            0.812779823258     2.068642131954     1.680976309500     1.007825032070
         H            1.857079823258     1.436142131954     0.396576309500     1.007825032070
         H            0.562179823258    -1.398157868046     0.273076309500     1.007825032070
         H            0.935879823258    -0.418457868046    -1.146423690500     1.007825032070
         H           -0.544320176742     1.409042131954    -0.286323690500     1.007825032070
         H           -0.944120176742     0.428842131954     1.125576309500     1.007825032070

  Running in c1 symmetry.

  Rotational constants: A =      0.77134  B =      0.12376  C =      0.11591 [cm^-1]
  Rotational constants: A =  23124.27001  B =   3710.31298  C =   3474.96796 [MHz]
  Nuclear repulsion =  131.164710219491440

  Charge       = 0
  Multiplicity = 1
  Electrons    = 34
  Nalpha       = 17
  Nbeta        = 17

  ==> Algorithm <==

  SCF Algorithm Type is DF.
  DIIS enabled.
  MOM disabled.
  Fractional occupation disabled.
  Guess Type is SAD.
  Energy threshold   = 1.00e-10
  Density threshold  = 1.00e-10
  Integral threshold = 0.00e+00

  ==> Primary Basis <==

  Basis Set: DEF2-SV(P)
    Blend: DEF2-SV(P)
    Number of shells: 44
    Number of basis function: 76
    Number of Cartesian functions: 80
    Spherical Harmonics?: true
    Max angular momentum: 2

   => Loading Basis Set <=

    Name: (DEF2-SV(P) AUX)
    Role: JKFIT
    Keyword: DF_BASIS_SCF
    atoms 1-4  entry C          line   203 file /home/limvt/local/lib/miniconda3/envs/p4env/share/psi4/basis/def2-sv_p_-jkfit.gbs 
    atoms 5-14 entry H          line    23 file /home/limvt/local/lib/miniconda3/envs/p4env/share/psi4/basis/def2-sv_p_-jkfit.gbs 

  ==> Pre-Iterations <==

   -------------------------------------------------------
    Irrep   Nso     Nmo     Nalpha   Nbeta   Ndocc  Nsocc
   -------------------------------------------------------
     A         76      76       0       0       0       0
   -------------------------------------------------------
    Total      76      76      17      17      17       0
   -------------------------------------------------------

  ==> Integral Setup <==

  DFHelper Memory: AOs need 0.027 [GiB]; user supplied 3.492 [GiB]. Using in-core AOs.

  ==> MemDFJK: Density-Fitted J/K Matrices <==

    J tasked:                   Yes
    K tasked:                   Yes
    wK tasked:                   No
    OpenMP threads:               1
    Memory (MB):               3576
    Algorithm:                 Core
    Schwarz Cutoff:           1E-12
    Mask sparsity (%):       0.5194
    Fitting Condition:        1E-12

   => Auxiliary Basis Set <=

  Basis Set: (DEF2-SV(P) AUX)
    Blend: DEF2-SV_P_-JKFIT
    Number of shells: 160
    Number of basis function: 480
    Number of Cartesian functions: 556
    Spherical Harmonics?: true
    Max angular momentum: 4

  Minimum eigenvalue in the overlap matrix is 2.0180217344E-03.
  Using Symmetric Orthogonalization.

  SCF Guess: Superposition of Atomic Densities via on-the-fly atomic UHF.

  ==> Iterations <==

                           Total Energy        Delta E     RMS |[F,P]|

   @DF-RHF iter   0:  -158.57558307244045   -1.58576e+02   4.83589e-02 
   @DF-RHF iter   1:  -157.03401930458162    1.54156e+00   5.13168e-03 
   @DF-RHF iter   2:  -157.14394513991090   -1.09926e-01   1.86943e-03 DIIS
   @DF-RHF iter   3:  -157.15796565963640   -1.40205e-02   6.93259e-04 DIIS
   @DF-RHF iter   4:  -157.16040770911951   -2.44205e-03   8.94768e-05 DIIS
   @DF-RHF iter   5:  -157.16045703276183   -4.93236e-05   2.80711e-05 DIIS
   @DF-RHF iter   6:  -157.16046104606076   -4.01330e-06   5.68888e-06 DIIS
   @DF-RHF iter   7:  -157.16046121511405   -1.69053e-07   9.13198e-07 DIIS
   @DF-RHF iter   8:  -157.16046122130484   -6.19079e-09   1.50931e-07 DIIS
   @DF-RHF iter   9:  -157.16046122147014   -1.65301e-10   3.45456e-08 DIIS
   @DF-RHF iter  10:  -157.16046122147932   -9.18021e-12   5.43740e-09 DIIS
   @DF-RHF iter  11:  -157.16046122147938   -5.68434e-14   1.01496e-09 DIIS
   @DF-RHF iter  12:  -157.16046122147941   -2.84217e-14   2.24667e-10 DIIS
   @DF-RHF iter  13:  -157.16046122147941    0.00000e+00   7.01581e-11 DIIS

  ==> Post-Iterations <==

    Orbital Energies [Eh]
    ---------------------

    Doubly Occupied:                                                      

       1A    -11.214959     2A    -11.214418     3A    -11.209179  
       4A    -11.209174     5A     -1.064814     6A     -0.973228  
       7A     -0.849295     8A     -0.782100     9A     -0.644448  
      10A     -0.590688    11A     -0.577632    12A     -0.572628  
      13A     -0.518363    14A     -0.498380    15A     -0.475109  
      16A     -0.467579    17A     -0.457443  

    Virtual:                                                              

      18A      0.175713    19A      0.200167    20A      0.221063  
      21A      0.222751    22A      0.265804    23A      0.272347  
      24A      0.280638    25A      0.291229    26A      0.298430  
      27A      0.308978    28A      0.389196    29A      0.397550  
      30A      0.422372    31A      0.597934    32A      0.601842  
      33A      0.608374    34A      0.629786    35A      0.647714  
      36A      0.723239    37A      0.725565    38A      0.873682  
      39A      0.893301    40A      0.906925    41A      0.922450  
      42A      0.948419    43A      0.956215    44A      0.963579  
      45A      0.967253    46A      0.971149    47A      0.989640  
      48A      0.997931    49A      1.003010    50A      1.004762  
      51A      1.020753    52A      1.030569    53A      1.110343  
      54A      1.274622    55A      1.297245    56A      1.322301  
      57A      1.693535    58A      1.730906    59A      1.892452  
      60A      2.071751    61A      2.167103    62A      2.185251  
      63A      2.212241    64A      2.223644    65A      2.286921  
      66A      2.330056    67A      2.430525    68A      2.475674  
      69A      2.532695    70A      2.539962    71A      2.646462  
      72A      2.658931    73A      2.702577    74A      2.833780  
      75A      2.993328    76A      3.080672  

    Final Occupation by Irrep:
              A 
    DOCC [    17 ]

  Energy converged.

  @DF-RHF Final Energy:  -157.16046122147941

   => Energetics <=

    Nuclear Repulsion Energy =            131.1647102194914396
    One-Electron Energy =                -470.0114665457936098
    Two-Electron Energy =                 181.6862951048227615
    Total Energy =                       -157.1604612214794088



Properties will be evaluated at   0.000000,   0.000000,   0.000000 [a0]

Properties computed using the SCF density matrix

  Nuclear Dipole Moment: [e a0]
     X:    -0.0036      Y:    -0.0052      Z:     0.0089

  Electronic Dipole Moment: [e a0]
     X:     0.0036      Y:     0.0054      Z:    -0.0090

  Dipole Moment: [e a0]
     X:     0.0000      Y:     0.0001      Z:    -0.0001     Total:     0.0002

  Dipole Moment: [D]
     X:     0.0000      Y:     0.0004      Z:    -0.0004     Total:     0.0005


*** tstop() called on cassandra at Fri Dec 14 16:39:55 2018
Module time:
	user time   =       1.44 seconds =       0.02 minutes
	system time =       0.02 seconds =       0.00 minutes
	total time  =          1 seconds =       0.02 minutes
Total time:
	user time   =       1.44 seconds =       0.02 minutes
	system time =       0.02 seconds =       0.00 minutes
	total time  =          1 seconds =       0.02 minutes

  //>>>>>>>>>>>>>>>>>>>>>>>>>>>>>>>>>>>//
  //               DFMP2               //
  //<<<<<<<<<<<<<<<<<<<<<<<<<<<<<<<<<<<//

   => Loading Basis Set <=

    Name: DEF2-SV_P_-RI
    Role: RIFIT
    Keyword: DF_BASIS_MP2
    atoms 1-4  entry C          line   153 file /home/limvt/local/lib/miniconda3/envs/p4env/share/psi4/basis/def2-sv_p_-ri.gbs 
    atoms 5-14 entry H          line    22 file /home/limvt/local/lib/miniconda3/envs/p4env/share/psi4/basis/def2-sv_p_-ri.gbs 

	 --------------------------------------------------------
	                          DF-MP2                         
	      2nd-Order Density-Fitted Moller-Plesset Theory     
	              RMP2 Wavefunction,   1 Threads             
	                                                         
	        Rob Parrish, Justin Turney, Andy Simmonett,      
	           Ed Hohenstein, and C. David Sherrill          
	 --------------------------------------------------------

   => Auxiliary Basis Set <=

  Basis Set: DEF2-SV_P_-RI
    Blend: DEF2-SV_P_-RI
    Number of shells: 124
    Number of basis function: 332
    Number of Cartesian functions: 370
    Spherical Harmonics?: true
    Max angular momentum: 3

	 --------------------------------------------------------
	                 NBF =    76, NAUX =   332
	 --------------------------------------------------------
	   CLASS    FOCC     OCC    AOCC    AVIR     VIR    FVIR
	   PAIRS       4      17      13      59      59       0
	 --------------------------------------------------------

  DFHelper Memory: AOs need 0.027 [GiB]; user supplied 3.492 [GiB]. Using in-core AOs.


         ------------------------------------------------------------
                                     CPHF                           
                                  Rob Parrish                       
         ------------------------------------------------------------

  ==> Geometry <==

    Molecular point group: c1
    Full point group: C1

    Geometry (in Angstrom), charge = 0, multiplicity = 1:

       Center              X                  Y                   Z               Mass       
    ------------   -----------------  -----------------  -----------------  -----------------
         C           -1.072120176742    -1.177157868046    -1.099923690500    12.000000000000
         C            1.069279823258     1.171442131954     1.109076309500    12.000000000000
         C            0.161879823258    -0.630657868046    -0.399723690500    12.000000000000
         C           -0.158720176742     0.636842131954     0.389776309500    12.000000000000
         H           -1.487620176742    -0.440957868046    -1.795423690500     1.007825032070
         H           -0.818020176742    -2.076957868046    -1.668823690500     1.007825032070
         H           -1.848520176742    -1.441957868046    -0.375123690500     1.007825032070
         H            1.470879823258     0.428242131954     1.805376309500     1.007825032070
         H            0.812779823258     2.068642131954     1.680976309500     1.007825032070
         H            1.857079823258     1.436142131954     0.396576309500     1.007825032070
         H            0.562179823258    -1.398157868046     0.273076309500     1.007825032070
         H            0.935879823258    -0.418457868046    -1.146423690500     1.007825032070
         H           -0.544320176742     1.409042131954    -0.286323690500     1.007825032070
         H           -0.944120176742     0.428842131954     1.125576309500     1.007825032070

  Nuclear repulsion =  131.164710219491440
  Reference energy  = -157.160461221479409

  ==> Basis Set <==

  Basis Set: DEF2-SV(P)
    Blend: DEF2-SV(P)
    Number of shells: 44
    Number of basis function: 76
    Number of Cartesian functions: 80
    Spherical Harmonics?: true
    Max angular momentum: 2

  ==> CGRSolver (by Rob Parrish) <==

   Number of roots    =         1
   Preconditioning    =    JACOBI
   Convergence cutoff =     1E-06
   Maximum iterations =       100

  ==> CPHFRHamiltonian (by Rob Parrish) <== 

  ==> MemDFJK: Density-Fitted J/K Matrices <==

    J tasked:                   Yes
    K tasked:                   Yes
    wK tasked:                   No
    OpenMP threads:               1
    Memory (MB):               3576
    Algorithm:                 Core
    Schwarz Cutoff:           1E-12
    Mask sparsity (%):       0.5194
    Fitting Condition:        1E-12

   => Auxiliary Basis Set <=

  Basis Set: (DEF2-SV(P) AUX)
    Blend: DEF2-SV_P_-JKFIT
    Number of shells: 160
    Number of basis function: 480
    Number of Cartesian functions: 556
    Spherical Harmonics?: true
    Max angular momentum: 4

  ==> CPHF Iterations <==

  => Iterations <=

             Iter  Converged  Remaining    Residual
  CGR           1          0          1   9.584E-02
  CGR           2          0          1   1.007E-02
  CGR           3          0          1   3.529E-03
  CGR           4          0          1   3.304E-04
  CGR           5          0          1   5.644E-05
  CGR           6          0          1   8.815E-06
  CGR           7          0          1   1.551E-06
  CGR           8          1          0   2.915E-07

    CGRSolver converged.

  ==> DFCorrGrad: Density-Fitted Correlated Gradients <==

    OpenMP threads:              1
    Integrals threads:           1
    Memory (MB):              3576
    Schwarz Cutoff:          0E+00
    Fitting Condition:       1E-12

   => Auxiliary Basis Set <=

  Basis Set: (DEF2-SV(P) AUX)
    Blend: DEF2-SV_P_-JKFIT
    Number of shells: 160
    Number of basis function: 480
    Number of Cartesian functions: 556
    Spherical Harmonics?: true
    Max angular momentum: 4

	-----------------------------------------------------------
	 ==================> DF-MP2 Energies <==================== 
	-----------------------------------------------------------
	 Reference Energy          =    -157.1604612214794088 [Eh]
	 Singles Energy            =      -0.0000000000000000 [Eh]
	 Same-Spin Energy          =      -0.1186541064555622 [Eh]
	 Opposite-Spin Energy      =      -0.3956698062193916 [Eh]
	 Correlation Energy        =      -0.5143239126749538 [Eh]
	 Total Energy              =    -157.6747851341543765 [Eh]
	-----------------------------------------------------------
	 ================> DF-SCS-MP2 Energies <================== 
	-----------------------------------------------------------
	 SCS Same-Spin Scale       =       0.3333333333333333 [-]
	 SCS Opposite-Spin Scale   =       1.2000000000000000 [-]
	 SCS Same-Spin Energy      =      -0.0395513688185207 [Eh]
	 SCS Opposite-Spin Energy  =      -0.4748037674632699 [Eh]
	 SCS Correlation Energy    =      -0.5143551362817906 [Eh]
	 SCS Total Energy          =    -157.6748163577611876 [Eh]
	-----------------------------------------------------------


  -Total Gradient:
     Atom            X                  Y                   Z
    ------   -----------------  -----------------  -----------------
       1       -0.005303017935     0.002763718179     0.000578967079
       2        0.005142102455    -0.002840475349    -0.000445422517
       3        0.013909645357    -0.005354675130     0.000046513028
       4       -0.013801675062     0.005423154699    -0.000112189970
       5        0.002848456183    -0.004220587320     0.004050446629
       6        0.000804897642     0.006012197084     0.004450414559
       7        0.005004629220     0.001347045054    -0.003998304699
       8       -0.002746915861     0.004249921770    -0.004025039626
       9       -0.000819736984    -0.006055940038    -0.004408870182
      10       -0.005055095105    -0.001341676544     0.003902530832
      11       -0.003698481257     0.003222930939    -0.004662444513
      12       -0.005782348910    -0.002033634577     0.003087874624
      13        0.003666298397    -0.003275275939     0.004593993990
      14        0.005831241859     0.002103297172    -0.003058469234


*** tstop() called on cassandra at Fri Dec 14 16:39:58 2018
Module time:
	user time   =       4.03 seconds =       0.07 minutes
	system time =       0.05 seconds =       0.00 minutes
	total time  =          4 seconds =       0.07 minutes
Total time:
	user time   =       4.03 seconds =       0.07 minutes
	system time =       0.05 seconds =       0.00 minutes
	total time  =          4 seconds =       0.07 minutes

			-----------------------------------------
			 OPTKING 2.0: for geometry optimizations 
			  - R.A. King,  Bethel University        
			-----------------------------------------

	Internal coordinates to be generated automatically.
	Detected frag 1 with atoms:  1 2 3 4 5 6 7 8 9 10 11 12 13 14
	---Fragment 1 Bond Connectivity---
	 1 : 3 5 6 7
	 2 : 4 8 9 10
	 3 : 1 4 11 12
	 4 : 2 3 13 14
	 5 : 1
	 6 : 1
	 7 : 1
	 8 : 2
	 9 : 2
	 10 : 2
	 11 : 3
	 12 : 3
	 13 : 4
	 14 : 4

	---Fragment 1 Geometry and Gradient---
	 C          -2.0260135156       -2.2245059858       -2.0785545421
	 C           2.0206460254        2.2137048099        2.0958504854
	 C           0.3059085324       -1.1917706542       -0.7553683039
	 C          -0.2999376658        1.2034572193        0.7365704780
	 H          -2.8111947238       -0.8332896067       -3.3928590675
	 H          -1.5458341052       -3.9248815601       -3.1536197391
	 H          -3.4931968852       -2.7249054658       -0.7088810410
	 H           2.7795600403        0.8092603480        3.4116667918
	 H           1.5359312723        3.9091670963        3.1765848608
	 H           3.5093722729        2.7139153173        0.7494206157
	 H           1.0623659034       -2.6421354611        0.5160394383
	 H           1.7685565593       -0.7907707688       -2.1664268073
	 H          -1.0286160626        2.6627037391       -0.5410733604
	 H          -1.7841285706        0.8103941836        2.1270309666
	            -0.0053030179        0.0027637182        0.0005789671
	             0.0051421025       -0.0028404753       -0.0004454225
	             0.0139096454       -0.0053546751        0.0000465130
	            -0.0138016751        0.0054231547       -0.0001121900
	             0.0028484562       -0.0042205873        0.0040504466
	             0.0008048976        0.0060121971        0.0044504146
	             0.0050046292        0.0013470451       -0.0039983047
	            -0.0027469159        0.0042499218       -0.0040250396
	            -0.0008197370       -0.0060559400       -0.0044088702
	            -0.0050550951       -0.0013416765        0.0039025308
	            -0.0036984813        0.0032229309       -0.0046624445
	            -0.0057823489       -0.0020336346        0.0030878746
	             0.0036662984       -0.0032752759        0.0045939940
	             0.0058312419        0.0021032972       -0.0030584692

	Previous optimization step data not found.  Starting new optimization.

	---Fragment 1 Intrafragment Coordinates---
	 - Coordinate -           - BOHR/RAD -       - ANG/DEG -
	 R(1,3)           =         2.873191	       1.520427
	 R(1,5)           =         2.068668	       1.094692
	 R(1,6)           =         2.068239	       1.094465
	 R(1,7)           =         2.068582	       1.094647
	 R(2,4)           =         2.872865	       1.520254
	 R(2,8)           =         2.068765	       1.094743
	 R(2,9)           =         2.068218	       1.094454
	 R(2,10)          =         2.068669	       1.094692
	 R(3,4)           =         2.886182	       1.527302
	 R(3,11)          =         2.071778	       1.096338
	 R(3,12)          =         2.071528	       1.096205
	 R(4,13)          =         2.071894	       1.096399
	 R(4,14)          =         2.071401	       1.096138
	 B(1,3,4)         =         1.945489	     111.468316
	 B(1,3,11)        =         1.904272	     109.106768
	 B(1,3,12)        =         1.905977	     109.204439
	 B(2,4,3)         =         1.946422	     111.521788
	 B(2,4,13)        =         1.905176	     109.158530
	 B(2,4,14)        =         1.904871	     109.141057
	 B(3,1,5)         =         1.937905	     111.033756
	 B(3,1,6)         =         1.924589	     110.270827
	 B(3,1,7)         =         1.936571	     110.957351
	 B(3,4,13)        =         1.917246	     109.850128
	 B(3,4,14)        =         1.917629	     109.872065
	 B(4,2,8)         =         1.937490	     111.009999
	 B(4,2,9)         =         1.924317	     110.255226
	 B(4,2,10)        =         1.937332	     111.000957
	 B(4,3,11)        =         1.918131	     109.900809
	 B(4,3,12)        =         1.917370	     109.857234
	 B(5,1,6)         =         1.886806	     108.105995
	 B(5,1,7)         =         1.890361	     108.309694
	 B(6,1,7)         =         1.885953	     108.057150
	 B(8,2,9)         =         1.886139	     108.067791
	 B(8,2,10)        =         1.890339	     108.308440
	 B(9,2,10)        =         1.886562	     108.092059
	 B(11,3,12)       =         1.871016	     107.201292
	 B(13,4,14)       =         1.870870	     107.192929
	 D(1,3,4,2)       =         3.125160	     179.058452
	 D(1,3,4,13)      =        -1.043386	     -59.781610
	 D(1,3,4,14)      =         1.010644	      57.905658
	 D(2,4,3,11)      =         1.011675	      57.964720
	 D(2,4,3,12)      =        -1.042907	     -59.754184
	 D(3,4,2,8)       =        -1.035278	     -59.317055
	 D(3,4,2,9)       =        -3.124896	    -179.043356
	 D(3,4,2,10)      =         1.068243	      61.205832
	 D(4,3,1,5)       =         1.038636	      59.509461
	 D(4,3,1,6)       =         3.129533	     179.309061
	 D(4,3,1,7)       =        -1.064680	     -61.001659
	 D(5,1,3,11)      =        -3.122999	    -178.934688
	 D(5,1,3,12)      =        -1.083110	     -62.057605
	 D(6,1,3,11)      =        -1.032102	     -59.135087
	 D(6,1,3,12)      =         1.007788	      57.741995
	 D(7,1,3,11)      =         1.056870	      60.554192
	 D(7,1,3,12)      =         3.096760	     177.431275
	 D(8,2,4,13)      =         3.126252	     179.121068
	 D(8,2,4,14)      =         1.086652	      62.260564
	 D(9,2,4,13)      =         1.036634	      59.394766
	 D(9,2,4,14)      =        -1.002966	     -57.465738
	 D(10,2,4,13)     =        -1.053412	     -60.356045
	 D(10,2,4,14)     =        -3.093012	    -177.216549
	 D(11,3,4,13)     =         3.126315	     179.124657
	 D(11,3,4,14)     =        -1.102840	     -63.188074
	 D(12,3,4,13)     =         1.071733	      61.405754
	 D(12,3,4,14)     =         3.125763	     179.093022

	Current energy   :      -157.6747851342

	Generating empirical Hessian (Schlegel '84) for each fragment.
	Taking RFO optimization step.
	Going to follow RFO solution 1.
	Using RFO vector 1.
	Norm of target step-size    0.13940
	Projected energy change by RFO approximation:        -0.0035358388

	Back-transformation to cartesian coordinates...
	Could not converge backtransformation.
	Using first guess instead.

	--- Internal Coordinate Step in ANG or DEG, aJ/ANG or AJ/DEG ---
	 ---------------------------------------------------------------------------
	   Coordinate                Previous        Force       Change         New 
	   ----------                --------       ------       ------       ------
	    1 R(1,3)          =      1.520427     0.059192     0.012594     1.533021
	    2 R(1,5)          =      1.094692     0.053494     0.009944     1.104636
	    3 R(1,6)          =      1.094465     0.058242     0.010897     1.105362
	    4 R(1,7)          =      1.094647     0.053740     0.010067     1.104713
	    5 R(2,4)          =      1.520254     0.059906     0.012740     1.532995
	    6 R(2,8)          =      1.094743     0.053164     0.009930     1.104673
	    7 R(2,9)          =      1.094454     0.058299     0.010955     1.105409
	    8 R(2,10)         =      1.094692     0.053571     0.009989     1.104681
	    9 R(3,4)          =      1.527302     0.013548     0.003270     1.530571
	   10 R(3,11)         =      1.096338     0.053287     0.010019     1.106357
	   11 R(3,12)         =      1.096205     0.054209     0.010298     1.106503
	   12 R(4,13)         =      1.096399     0.052968     0.010121     1.106520
	   13 R(4,14)         =      1.096138     0.054625     0.010255     1.106394
	   14 B(1,3,4)        =    111.468316     0.000522     2.061220   113.529535
	   15 B(1,3,11)       =    109.106768    -0.000063     0.435616   109.542384
	   16 B(1,3,12)       =    109.204439    -0.000075     0.343467   109.547907
	   17 B(2,4,3)        =    111.521788     0.000512     2.021451   113.543239
	   18 B(2,4,13)       =    109.158530    -0.000069     0.351719   109.510249
	   19 B(2,4,14)       =    109.141057    -0.000063     0.439960   109.581018
	   20 B(3,1,5)        =    111.033756    -0.000022    -0.209438   110.824318
	   21 B(3,1,6)        =    110.270827     0.000287     1.510495   111.781321
	   22 B(3,1,7)        =    110.957351    -0.000014    -0.161966   110.795385
	   23 B(3,4,13)       =    109.850128    -0.000223    -1.117408   108.732720
	   24 B(3,4,14)       =    109.872065    -0.000222    -1.048192   108.823873
	   25 B(4,2,8)        =    111.009999    -0.000023    -0.203833   110.806166
	   26 B(4,2,9)        =    110.255226     0.000289     1.523769   111.778995
	   27 B(4,2,10)       =    111.000957    -0.000015    -0.178729   110.822227
	   28 B(4,3,11)       =    109.900809    -0.000231    -1.111967   108.788841
	   29 B(4,3,12)       =    109.857234    -0.000221    -1.075895   108.781339
	   30 B(5,1,6)        =    108.105995    -0.000114    -0.350940   107.755055
	   31 B(5,1,7)        =    108.309694    -0.000036    -0.532282   107.777412
	   32 B(6,1,7)        =    108.057150    -0.000112    -0.315147   107.742003
	   33 B(8,2,9)        =    108.067791    -0.000111    -0.325224   107.742567
	   34 B(8,2,10)       =    108.308440    -0.000036    -0.531975   107.776465
	   35 B(9,2,10)       =    108.092059    -0.000115    -0.343315   107.748744
	   36 B(11,3,12)      =    107.201292     0.000050    -0.800935   106.400357
	   37 B(13,4,14)      =    107.192929     0.000049    -0.794814   106.398115
	   38 D(1,3,4,2)      =    179.058452     0.000002     0.747704   179.806156
	   39 D(1,3,4,13)     =    -59.781610     0.000025     1.757881   -58.023729
	   40 D(1,3,4,14)     =     57.905658    -0.000022    -0.426982    57.478676
	   41 D(2,4,3,11)     =     57.964720    -0.000023    -0.401548    57.563172
	   42 D(2,4,3,12)     =    -59.754184     0.000025     1.804942   -57.949242
	   43 D(3,4,2,8)      =    -59.317055     0.000007    -0.204340   -59.521395
	   44 D(3,4,2,9)      =   -179.043356    -0.000001    -0.668793  -179.712149
	   45 D(3,4,2,10)     =     61.205832    -0.000009    -1.127556    60.078276
	   46 D(4,3,1,5)      =     59.509461    -0.000007    -0.107728    59.401733
	   47 D(4,3,1,6)      =    179.309061     0.000000     0.313256   179.622317
	   48 D(4,3,1,7)      =    -61.001659     0.000009     0.808212   -60.193447
	   49 D(5,1,3,11)     =   -178.934688    -0.000005     0.160815  -178.773873
	   50 D(5,1,3,12)     =    -62.057605    -0.000009    -0.359428   -62.417033
	   51 D(6,1,3,11)     =    -59.135087     0.000002     0.581798   -58.553289
	   52 D(6,1,3,12)     =     57.741995    -0.000002     0.061556    57.803551
	   53 D(7,1,3,11)     =     60.554192     0.000011     1.076754    61.630946
	   54 D(7,1,3,12)     =    177.431275     0.000007     0.556512   177.987787
	   55 D(8,2,4,13)     =    179.121068     0.000006    -0.380400   178.740669
	   56 D(8,2,4,14)     =     62.260564     0.000009     0.125425    62.385988
	   57 D(9,2,4,13)     =     59.394766    -0.000003    -0.844852    58.549915
	   58 D(9,2,4,14)     =    -57.465738     0.000001    -0.339028   -57.804766
	   59 D(10,2,4,13)    =    -60.356045    -0.000011    -1.303615   -61.659660
	   60 D(10,2,4,14)    =   -177.216549    -0.000007    -0.797791  -178.014341
	   61 D(11,3,4,13)    =    179.124657    -0.000000     0.608629   179.733286
	   62 D(11,3,4,14)    =    -63.188074    -0.000047    -1.576234   -64.764308
	   63 D(12,3,4,13)    =     61.405754     0.000048     2.815119    64.220872
	   64 D(12,3,4,14)    =    179.093022     0.000000     0.630256   179.723278
	 ---------------------------------------------------------------------------
	Successfully symmetrized geometry.

  ==> Convergence Check <==

  Measures of convergence in internal coordinates in au.
  Criteria marked as inactive (o), active & met (*), and active & unmet ( ).
  --------------------------------------------------------------------------------------------- ~
   Step     Total Energy     Delta E     MAX Force     RMS Force      MAX Disp      RMS Disp    ~
  --------------------------------------------------------------------------------------------- ~
    Convergence Criteria    1.00e-06 *    3.00e-04 *             o    1.20e-03 *             o  ~
  --------------------------------------------------------------------------------------------- ~
      1    -157.67478513   -1.58e+02      7.27e-03      3.40e-03 o    4.91e-02      1.73e-02 o  ~
  ---------------------------------------------------------------------------------------------

	Writing optimization data to binary file.
	Structure for next step:
	Cartesian Geometry (in Angstrom)
	    C    -1.0851292701  -1.1975676936  -1.1229438739
	    C     1.0840921786   1.1956722972   1.1260310007
	    C     0.1453597131  -0.6344650298  -0.4025508405
	    C    -0.1451434139   0.6349564810   0.4017038669
	    H    -1.5021152051  -0.4551942768  -1.8266660278
	    H    -0.8416809906  -2.1087841630  -1.6993484498
	    H    -1.8779023971  -1.4587656161  -0.3992882507
	    H     1.4963214209   0.4527467281   1.8320269440
	    H     0.8406875220   2.1078745415   1.7009826264
	    H     1.8804579121   1.4542683911   0.4054409679
	    H     0.5582893869  -1.4016292913   0.2793389998
	    H     0.9385888996  -0.4140800208  -1.1418529892
	    H    -0.5535391848   1.4031480363  -0.2820226437
	    H    -0.9417690459   0.4167094635   1.1378170030
			--------------------------
			 OPTKING Finished Execution 
			--------------------------

    Structure for next step:
    Molecular point group: c1
    Full point group: C1

    Geometry (in Angstrom), charge = 0, multiplicity = 1:

    C           -1.084913491958    -1.197213300188    -1.123518276855
    C            1.084307956755     1.196026690632     1.125456597735
    C            0.145575491248    -0.634110636333    -0.403125243485
    C           -0.144927635770     0.635310874460     0.401129463955
    H           -1.501899426909    -0.454839883340    -1.827240430724
    H           -0.841465212380    -2.108429769555    -1.699922852749
    H           -1.877686618973    -1.458411222687    -0.399862653684
    H            1.496537199062     0.453101121567     1.831452541090
    H            0.840903300157     2.108228934899     1.700408223447
    H            1.880673690301     1.454622784559     0.404866564913
    H            0.558505165110    -1.401274897849     0.278764596896
    H            0.938804677741    -0.413725627362    -1.142427392200
    H           -0.553323406618     1.403502429725    -0.282597046701
    H           -0.941553267749     0.417063856976     1.137242600023

gradient() will perform analytic gradient computation.

*** tstart() called on cassandra
*** at Fri Dec 14 16:39:58 2018


*** tstart() called on cassandra
*** at Fri Dec 14 16:39:58 2018

   => Loading Basis Set <=

    Name: DEF2-SV(P)
    Role: ORBITAL
    Keyword: BASIS
    atoms 1-4  entry C          line    88 file /home/limvt/local/lib/miniconda3/envs/p4env/share/psi4/basis/def2-sv_p_.gbs 
    atoms 5-14 entry H          line    15 file /home/limvt/local/lib/miniconda3/envs/p4env/share/psi4/basis/def2-sv_p_.gbs 


         ---------------------------------------------------------
                                   SCF
            by Justin Turney, Rob Parrish, Andy Simmonett
                             and Daniel Smith
                              RHF Reference
                        1 Threads,   4768 MiB Core
         ---------------------------------------------------------

  ==> Geometry <==

    Molecular point group: c1
    Full point group: C1

    Geometry (in Angstrom), charge = 0, multiplicity = 1:

       Center              X                  Y                   Z               Mass       
    ------------   -----------------  -----------------  -----------------  -----------------
         C           -1.084913491958    -1.197213300188    -1.123518276855    12.000000000000
         C            1.084307956755     1.196026690632     1.125456597735    12.000000000000
         C            0.145575491248    -0.634110636333    -0.403125243485    12.000000000000
         C           -0.144927635770     0.635310874460     0.401129463955    12.000000000000
         H           -1.501899426909    -0.454839883340    -1.827240430724     1.007825032070
         H           -0.841465212380    -2.108429769555    -1.699922852749     1.007825032070
         H           -1.877686618973    -1.458411222687    -0.399862653684     1.007825032070
         H            1.496537199062     0.453101121567     1.831452541090     1.007825032070
         H            0.840903300157     2.108228934899     1.700408223447     1.007825032070
         H            1.880673690301     1.454622784559     0.404866564913     1.007825032070
         H            0.558505165110    -1.401274897849     0.278764596896     1.007825032070
         H            0.938804677741    -0.413725627362    -1.142427392200     1.007825032070
         H           -0.553323406618     1.403502429725    -0.282597046701     1.007825032070
         H           -0.941553267749     0.417063856976     1.137242600023     1.007825032070

  Running in c1 symmetry.

  Rotational constants: A =      0.77851  B =      0.11969  C =      0.11258 [cm^-1]
  Rotational constants: A =  23339.01086  B =   3588.28493  C =   3374.92836 [MHz]
  Nuclear repulsion =  129.859830248967768

  Charge       = 0
  Multiplicity = 1
  Electrons    = 34
  Nalpha       = 17
  Nbeta        = 17

  ==> Algorithm <==

  SCF Algorithm Type is DF.
  DIIS enabled.
  MOM disabled.
  Fractional occupation disabled.
  Guess Type is READ.
  Energy threshold   = 1.00e-10
  Density threshold  = 1.00e-10
  Integral threshold = 0.00e+00

  ==> Primary Basis <==

  Basis Set: DEF2-SV(P)
    Blend: DEF2-SV(P)
    Number of shells: 44
    Number of basis function: 76
    Number of Cartesian functions: 80
    Spherical Harmonics?: true
    Max angular momentum: 2

   => Loading Basis Set <=

    Name: (DEF2-SV(P) AUX)
    Role: JKFIT
    Keyword: DF_BASIS_SCF
    atoms 1-4  entry C          line   203 file /home/limvt/local/lib/miniconda3/envs/p4env/share/psi4/basis/def2-sv_p_-jkfit.gbs 
    atoms 5-14 entry H          line    23 file /home/limvt/local/lib/miniconda3/envs/p4env/share/psi4/basis/def2-sv_p_-jkfit.gbs 

  Reading orbitals from file 180, no projection.

  ==> Pre-Iterations <==

   -------------------------------------------------------
    Irrep   Nso     Nmo     Nalpha   Nbeta   Ndocc  Nsocc
   -------------------------------------------------------
     A         76      76       0       0       0       0
   -------------------------------------------------------
    Total      76      76      17      17      17       0
   -------------------------------------------------------

  ==> Integral Setup <==

  DFHelper Memory: AOs need 0.027 [GiB]; user supplied 3.492 [GiB]. Using in-core AOs.

  ==> MemDFJK: Density-Fitted J/K Matrices <==

    J tasked:                   Yes
    K tasked:                   Yes
    wK tasked:                   No
    OpenMP threads:               1
    Memory (MB):               3576
    Algorithm:                 Core
    Schwarz Cutoff:           1E-12
    Mask sparsity (%):       0.5194
    Fitting Condition:        1E-12

   => Auxiliary Basis Set <=

  Basis Set: (DEF2-SV(P) AUX)
    Blend: DEF2-SV_P_-JKFIT
    Number of shells: 160
    Number of basis function: 480
    Number of Cartesian functions: 556
    Spherical Harmonics?: true
    Max angular momentum: 4

  Minimum eigenvalue in the overlap matrix is 2.2005389264E-03.
  Using Symmetric Orthogonalization.

  SCF Guess: Orbitals guess was supplied from a previous computation.

  ==> Iterations <==

                           Total Energy        Delta E     RMS |[F,P]|

   @DF-RHF iter   0:  -157.11605191220715   -1.57116e+02   7.63329e-04 
   @DF-RHF iter   1:  -157.16029721917786   -4.42453e-02   7.23456e-05 
   @DF-RHF iter   2:  -157.16032265957344   -2.54404e-05   1.92515e-05 DIIS
   @DF-RHF iter   3:  -157.16032467176689   -2.01219e-06   5.47890e-06 DIIS
   @DF-RHF iter   4:  -157.16032480055571   -1.28789e-07   1.26067e-06 DIIS
   @DF-RHF iter   5:  -157.16032480905275   -8.49704e-09   2.58047e-07 DIIS
   @DF-RHF iter   6:  -157.16032480948772   -4.34966e-10   6.13222e-08 DIIS
   @DF-RHF iter   7:  -157.16032480950579   -1.80762e-11   1.60297e-08 DIIS
   @DF-RHF iter   8:  -157.16032480950733   -1.53477e-12   2.62863e-09 DIIS
   @DF-RHF iter   9:  -157.16032480950730    2.84217e-14   5.14433e-10 DIIS
   @DF-RHF iter  10:  -157.16032480950722    8.52651e-14   8.23898e-11 DIIS

  ==> Post-Iterations <==

    Orbital Energies [Eh]
    ---------------------

    Doubly Occupied:                                                      

       1A    -11.219889     2A    -11.219359     3A    -11.215628  
       4A    -11.215620     5A     -1.059109     6A     -0.968585  
       7A     -0.850391     8A     -0.777915     9A     -0.638937  
      10A     -0.584977    11A     -0.577523    12A     -0.568545  
      13A     -0.516122    14A     -0.497318    15A     -0.472966  
      16A     -0.462862    17A     -0.461601  

    Virtual:                                                              

      18A      0.174880    19A      0.198389    20A      0.220776  
      21A      0.222867    22A      0.263166    23A      0.270057  
      24A      0.279119    25A      0.286904    26A      0.296175  
      27A      0.306638    28A      0.388952    29A      0.393862  
      30A      0.420325    31A      0.595175    32A      0.597675  
      33A      0.604044    34A      0.625345    35A      0.644870  
      36A      0.723138    37A      0.728166    38A      0.864127  
      39A      0.884440    40A      0.897475    41A      0.918704  
      42A      0.949107    43A      0.950273    44A      0.954766  
      45A      0.964127    46A      0.966490    47A      0.979847  
      48A      0.987818    49A      0.989553    50A      0.998848  
      51A      1.015324    52A      1.022519    53A      1.081325  
      54A      1.271853    55A      1.287782    56A      1.301315  
      57A      1.685765    58A      1.748632    59A      1.882530  
      60A      2.078845    61A      2.137942    62A      2.177045  
      63A      2.214546    64A      2.215820    65A      2.273161  
      66A      2.331239    67A      2.398837    68A      2.468425  
      69A      2.517235    70A      2.525016    71A      2.628404  
      72A      2.646456    73A      2.678498    74A      2.838447  
      75A      2.990993    76A      3.057490  

    Final Occupation by Irrep:
              A 
    DOCC [    17 ]

  Energy converged.

  @DF-RHF Final Energy:  -157.16032480950722

   => Energetics <=

    Nuclear Repulsion Energy =            129.8598302489677678
    One-Electron Energy =                -467.4256191093467692
    Two-Electron Energy =                 180.4054640508718137
    Total Energy =                       -157.1603248095072161



Properties will be evaluated at   0.000000,   0.000000,   0.000000 [a0]

Properties computed using the SCF density matrix

  Nuclear Dipole Moment: [e a0]
     X:    -0.0005      Y:    -0.0002      Z:     0.0006

  Electronic Dipole Moment: [e a0]
     X:     0.0005      Y:     0.0002      Z:    -0.0007

  Dipole Moment: [e a0]
     X:     0.0000      Y:     0.0000      Z:    -0.0001     Total:     0.0001

  Dipole Moment: [D]
     X:     0.0001      Y:     0.0001      Z:    -0.0002     Total:     0.0002


*** tstop() called on cassandra at Fri Dec 14 16:39:59 2018
Module time:
	user time   =       0.87 seconds =       0.01 minutes
	system time =       0.01 seconds =       0.00 minutes
	total time  =          1 seconds =       0.02 minutes
Total time:
	user time   =       4.91 seconds =       0.08 minutes
	system time =       0.06 seconds =       0.00 minutes
	total time  =          5 seconds =       0.08 minutes

  //>>>>>>>>>>>>>>>>>>>>>>>>>>>>>>>>>>>//
  //               DFMP2               //
  //<<<<<<<<<<<<<<<<<<<<<<<<<<<<<<<<<<<//

   => Loading Basis Set <=

    Name: DEF2-SV_P_-RI
    Role: RIFIT
    Keyword: DF_BASIS_MP2
    atoms 1-4  entry C          line   153 file /home/limvt/local/lib/miniconda3/envs/p4env/share/psi4/basis/def2-sv_p_-ri.gbs 
    atoms 5-14 entry H          line    22 file /home/limvt/local/lib/miniconda3/envs/p4env/share/psi4/basis/def2-sv_p_-ri.gbs 

	 --------------------------------------------------------
	                          DF-MP2                         
	      2nd-Order Density-Fitted Moller-Plesset Theory     
	              RMP2 Wavefunction,   1 Threads             
	                                                         
	        Rob Parrish, Justin Turney, Andy Simmonett,      
	           Ed Hohenstein, and C. David Sherrill          
	 --------------------------------------------------------

   => Auxiliary Basis Set <=

  Basis Set: DEF2-SV_P_-RI
    Blend: DEF2-SV_P_-RI
    Number of shells: 124
    Number of basis function: 332
    Number of Cartesian functions: 370
    Spherical Harmonics?: true
    Max angular momentum: 3

	 --------------------------------------------------------
	                 NBF =    76, NAUX =   332
	 --------------------------------------------------------
	   CLASS    FOCC     OCC    AOCC    AVIR     VIR    FVIR
	   PAIRS       4      17      13      59      59       0
	 --------------------------------------------------------

  DFHelper Memory: AOs need 0.027 [GiB]; user supplied 3.492 [GiB]. Using in-core AOs.


         ------------------------------------------------------------
                                     CPHF                           
                                  Rob Parrish                       
         ------------------------------------------------------------

  ==> Geometry <==

    Molecular point group: c1
    Full point group: C1

    Geometry (in Angstrom), charge = 0, multiplicity = 1:

       Center              X                  Y                   Z               Mass       
    ------------   -----------------  -----------------  -----------------  -----------------
         C           -1.084913491958    -1.197213300188    -1.123518276855    12.000000000000
         C            1.084307956755     1.196026690632     1.125456597735    12.000000000000
         C            0.145575491248    -0.634110636333    -0.403125243485    12.000000000000
         C           -0.144927635770     0.635310874460     0.401129463955    12.000000000000
         H           -1.501899426909    -0.454839883340    -1.827240430724     1.007825032070
         H           -0.841465212380    -2.108429769555    -1.699922852749     1.007825032070
         H           -1.877686618973    -1.458411222687    -0.399862653684     1.007825032070
         H            1.496537199062     0.453101121567     1.831452541090     1.007825032070
         H            0.840903300157     2.108228934899     1.700408223447     1.007825032070
         H            1.880673690301     1.454622784559     0.404866564913     1.007825032070
         H            0.558505165110    -1.401274897849     0.278764596896     1.007825032070
         H            0.938804677741    -0.413725627362    -1.142427392200     1.007825032070
         H           -0.553323406618     1.403502429725    -0.282597046701     1.007825032070
         H           -0.941553267749     0.417063856976     1.137242600023     1.007825032070

  Nuclear repulsion =  129.859830248967768
  Reference energy  = -157.160324809507216

  ==> Basis Set <==

  Basis Set: DEF2-SV(P)
    Blend: DEF2-SV(P)
    Number of shells: 44
    Number of basis function: 76
    Number of Cartesian functions: 80
    Spherical Harmonics?: true
    Max angular momentum: 2

  ==> CGRSolver (by Rob Parrish) <==

   Number of roots    =         1
   Preconditioning    =    JACOBI
   Convergence cutoff =     1E-06
   Maximum iterations =       100

  ==> CPHFRHamiltonian (by Rob Parrish) <== 

  ==> MemDFJK: Density-Fitted J/K Matrices <==

    J tasked:                   Yes
    K tasked:                   Yes
    wK tasked:                   No
    OpenMP threads:               1
    Memory (MB):               3576
    Algorithm:                 Core
    Schwarz Cutoff:           1E-12
    Mask sparsity (%):       0.5194
    Fitting Condition:        1E-12

   => Auxiliary Basis Set <=

  Basis Set: (DEF2-SV(P) AUX)
    Blend: DEF2-SV_P_-JKFIT
    Number of shells: 160
    Number of basis function: 480
    Number of Cartesian functions: 556
    Spherical Harmonics?: true
    Max angular momentum: 4

  ==> CPHF Iterations <==

  => Iterations <=

             Iter  Converged  Remaining    Residual
  CGR           1          0          1   9.532E-02
  CGR           2          0          1   1.014E-02
  CGR           3          0          1   3.586E-03
  CGR           4          0          1   3.366E-04
  CGR           5          0          1   5.903E-05
  CGR           6          0          1   9.963E-06
  CGR           7          0          1   1.760E-06
  CGR           8          1          0   3.268E-07

    CGRSolver converged.

  ==> DFCorrGrad: Density-Fitted Correlated Gradients <==

    OpenMP threads:              1
    Integrals threads:           1
    Memory (MB):              3576
    Schwarz Cutoff:          0E+00
    Fitting Condition:       1E-12

   => Auxiliary Basis Set <=

  Basis Set: (DEF2-SV(P) AUX)
    Blend: DEF2-SV_P_-JKFIT
    Number of shells: 160
    Number of basis function: 480
    Number of Cartesian functions: 556
    Spherical Harmonics?: true
    Max angular momentum: 4

	-----------------------------------------------------------
	 ==================> DF-MP2 Energies <==================== 
	-----------------------------------------------------------
	 Reference Energy          =    -157.1603248095072161 [Eh]
	 Singles Energy            =      -0.0000000000000000 [Eh]
	 Same-Spin Energy          =      -0.1185869351505281 [Eh]
	 Opposite-Spin Energy      =      -0.3970846084082480 [Eh]
	 Correlation Energy        =      -0.5156715435587761 [Eh]
	 Total Energy              =    -157.6759963530659832 [Eh]
	-----------------------------------------------------------
	 ================> DF-SCS-MP2 Energies <================== 
	-----------------------------------------------------------
	 SCS Same-Spin Scale       =       0.3333333333333333 [-]
	 SCS Opposite-Spin Scale   =       1.2000000000000000 [-]
	 SCS Same-Spin Energy      =      -0.0395289783835094 [Eh]
	 SCS Opposite-Spin Energy  =      -0.4765015300898976 [Eh]
	 SCS Correlation Energy    =      -0.5160305084734069 [Eh]
	 SCS Total Energy          =    -157.6763553179806365 [Eh]
	-----------------------------------------------------------


  -Total Gradient:
     Atom            X                  Y                   Z
    ------   -----------------  -----------------  -----------------
       1       -0.001973224235    -0.001349717585    -0.001578536047
       2        0.001994651167     0.001409201820     0.001434627842
       3        0.001166866952     0.000053522204     0.000412468529
       4       -0.001200717356    -0.000225766240    -0.000164488140
       5        0.000051473092    -0.000124481259     0.000015630106
       6       -0.000509782688    -0.000703993342    -0.000642371143
       7        0.000088672394    -0.000108733978    -0.000036396075
       8       -0.000071004246     0.000103495948    -0.000003308109
       9        0.000499555423     0.000715649890     0.000676706310
      10       -0.000073048938     0.000108150754     0.000073078294
      11       -0.000314291026     0.000523241162     0.000188275543
      12       -0.000287232248     0.000415762086     0.000213866790
      13        0.000353534892    -0.000452159577    -0.000284430935
      14        0.000274546818    -0.000364171883    -0.000305122965


*** tstop() called on cassandra at Fri Dec 14 16:40:02 2018
Module time:
	user time   =       3.44 seconds =       0.06 minutes
	system time =       0.05 seconds =       0.00 minutes
	total time  =          4 seconds =       0.07 minutes
Total time:
	user time   =       7.48 seconds =       0.12 minutes
	system time =       0.10 seconds =       0.00 minutes
	total time  =          8 seconds =       0.13 minutes

			-----------------------------------------
			 OPTKING 2.0: for geometry optimizations 
			  - R.A. King,  Bethel University        
			-----------------------------------------

	Previous internal coordinate definitions found.
	---Fragment 1 Geometry and Gradient---
	 C          -2.0501893777       -2.2624052600       -2.1231418485
	 C           2.0490450820        2.2601628929        2.1268047442
	 C           0.2750978101       -1.1982954406       -0.7617963074
	 C          -0.2738735407        1.2005635620        0.7580248307
	 H          -2.8381785960       -0.8595228138       -3.4529839930
	 H          -1.5901388017       -3.9843548349       -3.2123886387
	 H          -3.5483134732       -2.7559978000       -0.7556309062
	 H           2.8280454539        0.8562370303        3.4609437280
	 H           1.5890769415        3.9839753124        3.2133058564
	 H           3.5539582200        2.7488386895        0.7650869280
	 H           1.0554218059       -2.6480257938        0.5267887437
	 H           1.7740837332       -0.7818281299       -2.1588748980
	 H          -1.0456297014        2.6522352190       -0.5340310242
	 H          -1.7792778156        0.7881364696        2.1490770607
	            -0.0019732242       -0.0013497176       -0.0015785360
	             0.0019946512        0.0014092018        0.0014346278
	             0.0011668670        0.0000535222        0.0004124685
	            -0.0012007174       -0.0002257662       -0.0001644881
	             0.0000514731       -0.0001244813        0.0000156301
	            -0.0005097827       -0.0007039933       -0.0006423711
	             0.0000886724       -0.0001087340       -0.0000363961
	            -0.0000710042        0.0001034959       -0.0000033081
	             0.0004995554        0.0007156499        0.0006767063
	            -0.0000730489        0.0001081508        0.0000730783
	            -0.0003142910        0.0005232412        0.0001882755
	            -0.0002872322        0.0004157621        0.0002138668
	             0.0003535349       -0.0004521596       -0.0002844309
	             0.0002745468       -0.0003641719       -0.0003051230

	---Fragment 1 Intrafragment Coordinates---
	 - Coordinate -           - BOHR/RAD -       - ANG/DEG -
	 R(1,3)           =         2.896990	       1.533021
	 R(1,5)           =         2.087459	       1.104636
	 R(1,6)           =         2.088831	       1.105362
	 R(1,7)           =         2.087605	       1.104713
	 R(2,4)           =         2.896940	       1.532995
	 R(2,8)           =         2.087529	       1.104673
	 R(2,9)           =         2.088919	       1.105409
	 R(2,10)          =         2.087545	       1.104681
	 R(3,4)           =         2.892361	       1.530571
	 R(3,11)          =         2.090712	       1.106357
	 R(3,12)          =         2.090988	       1.106503
	 R(4,13)          =         2.091020	       1.106520
	 R(4,14)          =         2.090781	       1.106394
	 B(1,3,4)         =         1.981464	     113.529535
	 B(1,3,11)        =         1.911875	     109.542384
	 B(1,3,12)        =         1.911972	     109.547907
	 B(2,4,3)         =         1.981703	     113.543239
	 B(2,4,13)        =         1.911314	     109.510249
	 B(2,4,14)        =         1.912550	     109.581018
	 B(3,1,5)         =         1.934249	     110.824318
	 B(3,1,6)         =         1.950952	     111.781321
	 B(3,1,7)         =         1.933744	     110.795385
	 B(3,4,13)        =         1.897744	     108.732720
	 B(3,4,14)        =         1.899335	     108.823873
	 B(4,2,8)         =         1.933932	     110.806166
	 B(4,2,9)         =         1.950912	     111.778995
	 B(4,2,10)        =         1.934213	     110.822227
	 B(4,3,11)        =         1.898723	     108.788841
	 B(4,3,12)        =         1.898593	     108.781339
	 B(5,1,6)         =         1.880681	     107.755055
	 B(5,1,7)         =         1.881071	     107.777412
	 B(6,1,7)         =         1.880453	     107.742003
	 B(8,2,9)         =         1.880463	     107.742567
	 B(8,2,10)        =         1.881054	     107.776465
	 B(9,2,10)        =         1.880570	     107.748744
	 B(11,3,12)       =         1.857037	     106.400357
	 B(13,4,14)       =         1.856997	     106.398115
	 D(1,3,4,2)       =         3.138209	     179.806156
	 D(1,3,4,13)      =        -1.012705	     -58.023729
	 D(1,3,4,14)      =         1.003192	      57.478676
	 D(2,4,3,11)      =         1.004667	      57.563172
	 D(2,4,3,12)      =        -1.011405	     -57.949242
	 D(3,4,2,8)       =        -1.038844	     -59.521395
	 D(3,4,2,9)       =        -3.136569	    -179.712149
	 D(3,4,2,10)      =         1.048564	      60.078276
	 D(4,3,1,5)       =         1.036756	      59.401733
	 D(4,3,1,6)       =         3.135001	     179.622317
	 D(4,3,1,7)       =        -1.050574	     -60.193447
	 D(5,1,3,11)      =        -3.120193	    -178.773873
	 D(5,1,3,12)      =        -1.089383	     -62.417033
	 D(6,1,3,11)      =        -1.021948	     -58.553289
	 D(6,1,3,12)      =         1.008862	      57.803551
	 D(7,1,3,11)      =         1.075663	      61.630946
	 D(7,1,3,12)      =         3.106473	     177.987787
	 D(8,2,4,13)      =         3.119613	     178.740669
	 D(8,2,4,14)      =         1.088841	      62.385988
	 D(9,2,4,13)      =         1.021889	      58.549915
	 D(9,2,4,14)      =        -1.008883	     -57.804766
	 D(10,2,4,13)     =        -1.076164	     -61.659660
	 D(10,2,4,14)     =        -3.106936	    -178.014341
	 D(11,3,4,13)     =         3.136938	     179.733286
	 D(11,3,4,14)     =        -1.130350	     -64.764308
	 D(12,3,4,13)     =         1.120866	      64.220872
	 D(12,3,4,14)     =         3.136763	     179.723278

	Current energy   :      -157.6759963531

	Energy change for the previous step:
		Projected    :        -0.0035358388
		Actual       :        -0.0012112189

	Performing BFGS update.
	Previous computed or guess Hessian on step 1.
	Steps to be used in Hessian update: 1
	Taking RFO optimization step.
	Going to follow RFO solution 1.
	Using RFO vector 1.
	Norm of target step-size    0.05042
	Projected energy change by RFO approximation:        -0.0000089430

	Back-transformation to cartesian coordinates...
	Successfully converged to displaced geometry.

	--- Internal Coordinate Step in ANG or DEG, aJ/ANG or AJ/DEG ---
	 ---------------------------------------------------------------------------
	   Coordinate                Previous        Force       Change         New 
	   ----------                --------       ------       ------       ------
	    1 R(1,3)          =      1.533021    -0.031092    -0.005346     1.527675
	    2 R(1,5)          =      1.104636     0.000931     0.000417     1.105053
	    3 R(1,6)          =      1.105362    -0.006616    -0.000783     1.104579
	    4 R(1,7)          =      1.104713     0.000509     0.000342     1.105055
	    5 R(2,4)          =      1.532995    -0.031057    -0.005333     1.527662
	    6 R(2,8)          =      1.104673     0.000809     0.000391     1.105064
	    7 R(2,9)          =      1.105409    -0.006859    -0.000828     1.104581
	    8 R(2,10)         =      1.104681     0.000618     0.000364     1.105045
	    9 R(3,4)          =      1.530571    -0.012243    -0.002241     1.528330
	   10 R(3,11)         =      1.106357     0.003000     0.000747     1.107104
	   11 R(3,12)         =      1.106503     0.002191     0.000608     1.107111
	   12 R(4,13)         =      1.106520     0.002213     0.000600     1.107120
	   13 R(4,14)         =      1.106394     0.002709     0.000707     1.107101
	   14 B(1,3,4)        =    113.529535    -0.000145    -0.372409   113.157126
	   15 B(1,3,11)       =    109.542384     0.000030     0.020112   109.562496
	   16 B(1,3,12)       =    109.547907     0.000031     0.021897   109.569803
	   17 B(2,4,3)        =    113.543239    -0.000148    -0.381774   113.161465
	   18 B(2,4,13)       =    109.510249     0.000032     0.048764   109.559013
	   19 B(2,4,14)       =    109.581018     0.000029    -0.007752   109.573266
	   20 B(3,1,5)        =    110.824318     0.000009     0.037550   110.861868
	   21 B(3,1,6)        =    111.781321    -0.000080    -0.305671   111.475651
	   22 B(3,1,7)        =    110.795385     0.000014     0.068308   110.863693
	   23 B(3,4,13)       =    108.732720     0.000067     0.278813   109.011533
	   24 B(3,4,14)       =    108.823873     0.000063     0.210168   109.034041
	   25 B(4,2,8)        =    110.806166     0.000013     0.058777   110.864943
	   26 B(4,2,9)        =    111.778995    -0.000080    -0.302783   111.476213
	   27 B(4,2,10)       =    110.822227     0.000009     0.041953   110.864181
	   28 B(4,3,11)       =    108.788841     0.000064     0.240246   109.029088
	   29 B(4,3,12)       =    108.781339     0.000064     0.239291   109.020630
	   30 B(5,1,6)        =    107.755055     0.000033     0.094014   107.849069
	   31 B(5,1,7)        =    107.777412    -0.000004     0.011684   107.789096
	   32 B(6,1,7)        =    107.742003     0.000032     0.106511   107.848514
	   33 B(8,2,9)        =    107.742567     0.000032     0.104766   107.847333
	   34 B(8,2,10)       =    107.776465    -0.000004     0.011706   107.788171
	   35 B(9,2,10)       =    107.748744     0.000033     0.098080   107.846824
	   36 B(11,3,12)      =    106.400357    -0.000037    -0.133368   106.266989
	   37 B(13,4,14)      =    106.398115    -0.000037    -0.131620   106.266495
	   38 D(1,3,4,2)      =    179.806156    -0.000000     0.557240   180.363397
	   39 D(1,3,4,13)     =    -58.023729    -0.000003     0.564041   -57.459688
	   40 D(1,3,4,14)     =     57.478676     0.000003     0.673283    58.151959
	   41 D(2,4,3,11)     =     57.563172     0.000003     0.609103    58.172275
	   42 D(2,4,3,12)     =    -57.949242    -0.000003     0.507011   -57.442231
	   43 D(3,4,2,8)      =    -59.521395    -0.000001    -0.450561   -59.971956
	   44 D(3,4,2,9)      =   -179.712149     0.000000    -0.420243  -180.132392
	   45 D(3,4,2,10)     =     60.078276     0.000001    -0.369944    59.708332
	   46 D(4,3,1,5)      =     59.401733     0.000001     0.462591    59.864324
	   47 D(4,3,1,6)      =    179.622317     0.000000     0.402185   180.024502
	   48 D(4,3,1,7)      =    -60.193447    -0.000001     0.378660   -59.814787
	   49 D(5,1,3,11)     =   -178.773873     0.000003     0.530937  -178.242936
	   50 D(5,1,3,12)     =    -62.417033     0.000000     0.394191   -62.022842
	   51 D(6,1,3,11)     =    -58.553289     0.000001     0.470531   -58.082758
	   52 D(6,1,3,12)     =     57.803551    -0.000001     0.333785    58.137336
	   53 D(7,1,3,11)     =     61.630946     0.000000     0.447006    62.077952
	   54 D(7,1,3,12)     =    177.987787    -0.000002     0.310259   178.298046
	   55 D(8,2,4,13)     =    178.740669    -0.000003    -0.583250   178.157419
	   56 D(8,2,4,14)     =     62.385988    -0.000001    -0.448056    61.937932
	   57 D(9,2,4,13)     =     58.549915    -0.000002    -0.552931    57.996983
	   58 D(9,2,4,14)     =    -57.804766     0.000000    -0.417738   -58.222504
	   59 D(10,2,4,13)    =    -61.659660    -0.000001    -0.502633   -62.162293
	   60 D(10,2,4,14)    =   -178.014341     0.000002    -0.367440  -178.381780
	   61 D(11,3,4,13)    =    179.733286     0.000000     0.615903   180.349190
	   62 D(11,3,4,14)    =    -64.764308     0.000006     0.725146   -64.039163
	   63 D(12,3,4,13)    =     64.220872    -0.000005     0.513811    64.734684
	   64 D(12,3,4,14)    =    179.723278     0.000001     0.623053   180.346331
	 ---------------------------------------------------------------------------
	Successfully symmetrized geometry.

  ==> Convergence Check <==

  Measures of convergence in internal coordinates in au.
  Criteria marked as inactive (o), active & met (*), and active & unmet ( ).
  ---------------------------------------------------------------------------------------------
   Step     Total Energy     Delta E     MAX Force     RMS Force      MAX Disp      RMS Disp   
  ---------------------------------------------------------------------------------------------
    Convergence Criteria    1.00e-06 *    3.00e-04 *             o    1.20e-03 *             o
  ---------------------------------------------------------------------------------------------
      2    -157.67599635   -1.21e-03      3.77e-03      8.60e-04 o    1.27e-02      6.30e-03 o  ~
  ---------------------------------------------------------------------------------------------

	Writing optimization data to binary file.
	Structure for next step:
	Cartesian Geometry (in Angstrom)
	    C    -1.0852941425  -1.1858583857  -1.1188389719
	    C     1.0860100278   1.1879654287   1.1159253750
	    C     0.1449503216  -0.6347002092  -0.4001489513
	    C    -0.1460696653   0.6317518302   0.4043379792
	    H    -1.4939473009  -0.4418585754  -1.8263768231
	    H    -0.8441214905  -2.0997889894  -1.6903811274
	    H    -1.8826732896  -1.4385253588  -0.3966950257
	    H     1.4997881584   0.4469705224   1.8236540760
	    H     0.8451312843   2.1028569088   1.6860572686
	    H     1.8794602375   1.4406739506   0.3894960533
	    H     0.5548646367  -1.4072971199   0.2786317570
	    H     0.9401096280  -0.4178545958  -1.1393340867
	    H    -0.5618658764   1.4020326613  -0.2735235206
	    H    -0.9368041090   0.4134832877   1.1478226893
			--------------------------
			 OPTKING Finished Execution 
			--------------------------

    Structure for next step:
    Molecular point group: c1
    Full point group: C1

    Geometry (in Angstrom), charge = 0, multiplicity = 1:

    C           -1.085209772197    -1.185696570917    -1.119091241119
    C            1.086094398027     1.188127243536     1.115673105761
    C            0.145034691833    -0.634538394431    -0.400401220562
    C           -0.145985295028     0.631913644993     0.404085709937
    H           -1.493862930612    -0.441696760591    -1.826629092301
    H           -0.844037120240    -2.099627174595    -1.690633396641
    H           -1.882588919319    -1.438363544002    -0.396947294982
    H            1.499872528668     0.447132337162     1.823401806798
    H            0.845215654581     2.103018723546     1.685804999322
    H            1.879544607763     1.440835765384     0.389243784033
    H            0.554949006948    -1.407135305103     0.278379487793
    H            0.940193998313    -0.417692780986    -1.139586355980
    H           -0.561781506175     1.402194476109    -0.273775789807
    H           -0.936719738744     0.413645102504     1.147570420100

gradient() will perform analytic gradient computation.

*** tstart() called on cassandra
*** at Fri Dec 14 16:40:02 2018


*** tstart() called on cassandra
*** at Fri Dec 14 16:40:02 2018

   => Loading Basis Set <=

    Name: DEF2-SV(P)
    Role: ORBITAL
    Keyword: BASIS
    atoms 1-4  entry C          line    88 file /home/limvt/local/lib/miniconda3/envs/p4env/share/psi4/basis/def2-sv_p_.gbs 
    atoms 5-14 entry H          line    15 file /home/limvt/local/lib/miniconda3/envs/p4env/share/psi4/basis/def2-sv_p_.gbs 


         ---------------------------------------------------------
                                   SCF
            by Justin Turney, Rob Parrish, Andy Simmonett
                             and Daniel Smith
                              RHF Reference
                        1 Threads,   4768 MiB Core
         ---------------------------------------------------------

  ==> Geometry <==

    Molecular point group: c1
    Full point group: C1

    Geometry (in Angstrom), charge = 0, multiplicity = 1:

       Center              X                  Y                   Z               Mass       
    ------------   -----------------  -----------------  -----------------  -----------------
         C           -1.085209772197    -1.185696570917    -1.119091241119    12.000000000000
         C            1.086094398027     1.188127243536     1.115673105761    12.000000000000
         C            0.145034691833    -0.634538394431    -0.400401220562    12.000000000000
         C           -0.145985295028     0.631913644993     0.404085709937    12.000000000000
         H           -1.493862930612    -0.441696760591    -1.826629092301     1.007825032070
         H           -0.844037120240    -2.099627174595    -1.690633396641     1.007825032070
         H           -1.882588919319    -1.438363544002    -0.396947294982     1.007825032070
         H            1.499872528668     0.447132337162     1.823401806798     1.007825032070
         H            0.845215654581     2.103018723546     1.685804999322     1.007825032070
         H            1.879544607763     1.440835765384     0.389243784033     1.007825032070
         H            0.554949006948    -1.407135305103     0.278379487793     1.007825032070
         H            0.940193998313    -0.417692780986    -1.139586355980     1.007825032070
         H           -0.561781506175     1.402194476109    -0.273775789807     1.007825032070
         H           -0.936719738744     0.413645102504     1.147570420100     1.007825032070

  Running in c1 symmetry.

  Rotational constants: A =      0.77589  B =      0.12078  C =      0.11348 [cm^-1]
  Rotational constants: A =  23260.73162  B =   3620.77001  C =   3402.03609 [MHz]
  Nuclear repulsion =  130.149654430039760

  Charge       = 0
  Multiplicity = 1
  Electrons    = 34
  Nalpha       = 17
  Nbeta        = 17

  ==> Algorithm <==

  SCF Algorithm Type is DF.
  DIIS enabled.
  MOM disabled.
  Fractional occupation disabled.
  Guess Type is READ.
  Energy threshold   = 1.00e-10
  Density threshold  = 1.00e-10
  Integral threshold = 0.00e+00

  ==> Primary Basis <==

  Basis Set: DEF2-SV(P)
    Blend: DEF2-SV(P)
    Number of shells: 44
    Number of basis function: 76
    Number of Cartesian functions: 80
    Spherical Harmonics?: true
    Max angular momentum: 2

   => Loading Basis Set <=

    Name: (DEF2-SV(P) AUX)
    Role: JKFIT
    Keyword: DF_BASIS_SCF
    atoms 1-4  entry C          line   203 file /home/limvt/local/lib/miniconda3/envs/p4env/share/psi4/basis/def2-sv_p_-jkfit.gbs 
    atoms 5-14 entry H          line    23 file /home/limvt/local/lib/miniconda3/envs/p4env/share/psi4/basis/def2-sv_p_-jkfit.gbs 

  Reading orbitals from file 180, no projection.

  ==> Pre-Iterations <==

   -------------------------------------------------------
    Irrep   Nso     Nmo     Nalpha   Nbeta   Ndocc  Nsocc
   -------------------------------------------------------
     A         76      76       0       0       0       0
   -------------------------------------------------------
    Total      76      76      17      17      17       0
   -------------------------------------------------------

  ==> Integral Setup <==

  DFHelper Memory: AOs need 0.027 [GiB]; user supplied 3.492 [GiB]. Using in-core AOs.

  ==> MemDFJK: Density-Fitted J/K Matrices <==

    J tasked:                   Yes
    K tasked:                   Yes
    wK tasked:                   No
    OpenMP threads:               1
    Memory (MB):               3576
    Algorithm:                 Core
    Schwarz Cutoff:           1E-12
    Mask sparsity (%):       0.5194
    Fitting Condition:        1E-12

   => Auxiliary Basis Set <=

  Basis Set: (DEF2-SV(P) AUX)
    Blend: DEF2-SV_P_-JKFIT
    Number of shells: 160
    Number of basis function: 480
    Number of Cartesian functions: 556
    Spherical Harmonics?: true
    Max angular momentum: 4

  Minimum eigenvalue in the overlap matrix is 2.1489116477E-03.
  Using Symmetric Orthogonalization.

  SCF Guess: Orbitals guess was supplied from a previous computation.

  ==> Iterations <==

                           Total Energy        Delta E     RMS |[F,P]|

   @DF-RHF iter   0:  -157.16355000421567   -1.57164e+02   2.69856e-04 
   @DF-RHF iter   1:  -157.16036794410218    3.18206e-03   3.48415e-05 
   @DF-RHF iter   2:  -157.16037454277080   -6.59867e-06   1.09718e-05 DIIS
   @DF-RHF iter   3:  -157.16037537248229   -8.29711e-07   1.53917e-06 DIIS
   @DF-RHF iter   4:  -157.16037538725902   -1.47767e-08   4.70683e-07 DIIS
   @DF-RHF iter   5:  -157.16037538834630   -1.08727e-09   1.15950e-07 DIIS
   @DF-RHF iter   6:  -157.16037538843540   -8.91021e-11   1.87691e-08 DIIS
   @DF-RHF iter   7:  -157.16037538843761   -2.21689e-12   5.40899e-09 DIIS
   @DF-RHF iter   8:  -157.16037538843773   -1.13687e-13   1.33381e-09 DIIS
   @DF-RHF iter   9:  -157.16037538843787   -1.42109e-13   2.75085e-10 DIIS
   @DF-RHF iter  10:  -157.16037538843761    2.55795e-13   4.99219e-11 DIIS

  ==> Post-Iterations <==

    Orbital Energies [Eh]
    ---------------------

    Doubly Occupied:                                                      

       1A    -11.219348     2A    -11.218812     3A    -11.214969  
       4A    -11.214963     5A     -1.060774     6A     -0.969667  
       7A     -0.849451     8A     -0.778013     9A     -0.639399  
      10A     -0.586366    11A     -0.578160    12A     -0.568602  
      13A     -0.516533    14A     -0.496278    15A     -0.473835  
      16A     -0.462470    17A     -0.461391  

    Virtual:                                                              

      18A      0.174985    19A      0.198626    20A      0.220213  
      21A      0.222159    22A      0.263720    23A      0.270111  
      24A      0.279426    25A      0.287641    26A      0.296129  
      27A      0.306764    28A      0.389595    29A      0.395436  
      30A      0.421358    31A      0.596384    32A      0.597758  
      33A      0.604610    34A      0.625421    35A      0.645106  
      36A      0.723401    37A      0.727934    38A      0.866638  
      39A      0.886570    40A      0.899227    41A      0.919037  
      42A      0.949024    43A      0.949940    44A      0.955835  
      45A      0.964499    46A      0.965669    47A      0.980747  
      48A      0.987797    49A      0.991396    50A      0.998043  
      51A      1.015699    52A      1.022021    53A      1.085867  
      54A      1.273052    55A      1.290463    56A      1.305145  
      57A      1.686735    58A      1.744935    59A      1.884466  
      60A      2.075563    61A      2.144869    62A      2.180265  
      63A      2.214015    64A      2.215618    65A      2.276415  
      66A      2.330122    67A      2.404765    68A      2.467755  
      69A      2.519111    70A      2.527357    71A      2.632126  
      72A      2.649994    73A      2.684575    74A      2.838157  
      75A      2.994525    76A      3.064203  

    Final Occupation by Irrep:
              A 
    DOCC [    17 ]

  Energy converged.

  @DF-RHF Final Energy:  -157.16037538843761

   => Energetics <=

    Nuclear Repulsion Energy =            130.1496544300397602
    One-Electron Energy =                -468.0019951698183149
    Two-Electron Energy =                 180.6919653513409685
    Total Energy =                       -157.1603753884376147



Properties will be evaluated at   0.000000,   0.000000,   0.000000 [a0]

Properties computed using the SCF density matrix

  Nuclear Dipole Moment: [e a0]
     X:     0.0007      Y:     0.0022      Z:    -0.0030

  Electronic Dipole Moment: [e a0]
     X:    -0.0008      Y:    -0.0022      Z:     0.0030

  Dipole Moment: [e a0]
     X:    -0.0000      Y:    -0.0001      Z:     0.0001     Total:     0.0001

  Dipole Moment: [D]
     X:    -0.0000      Y:    -0.0001      Z:     0.0002     Total:     0.0002


*** tstop() called on cassandra at Fri Dec 14 16:40:02 2018
Module time:
	user time   =       0.84 seconds =       0.01 minutes
	system time =       0.00 seconds =       0.00 minutes
	total time  =          0 seconds =       0.00 minutes
Total time:
	user time   =       8.33 seconds =       0.14 minutes
	system time =       0.10 seconds =       0.00 minutes
	total time  =          8 seconds =       0.13 minutes

  //>>>>>>>>>>>>>>>>>>>>>>>>>>>>>>>>>>>//
  //               DFMP2               //
  //<<<<<<<<<<<<<<<<<<<<<<<<<<<<<<<<<<<//

   => Loading Basis Set <=

    Name: DEF2-SV_P_-RI
    Role: RIFIT
    Keyword: DF_BASIS_MP2
    atoms 1-4  entry C          line   153 file /home/limvt/local/lib/miniconda3/envs/p4env/share/psi4/basis/def2-sv_p_-ri.gbs 
    atoms 5-14 entry H          line    22 file /home/limvt/local/lib/miniconda3/envs/p4env/share/psi4/basis/def2-sv_p_-ri.gbs 

	 --------------------------------------------------------
	                          DF-MP2                         
	      2nd-Order Density-Fitted Moller-Plesset Theory     
	              RMP2 Wavefunction,   1 Threads             
	                                                         
	        Rob Parrish, Justin Turney, Andy Simmonett,      
	           Ed Hohenstein, and C. David Sherrill          
	 --------------------------------------------------------

   => Auxiliary Basis Set <=

  Basis Set: DEF2-SV_P_-RI
    Blend: DEF2-SV_P_-RI
    Number of shells: 124
    Number of basis function: 332
    Number of Cartesian functions: 370
    Spherical Harmonics?: true
    Max angular momentum: 3

	 --------------------------------------------------------
	                 NBF =    76, NAUX =   332
	 --------------------------------------------------------
	   CLASS    FOCC     OCC    AOCC    AVIR     VIR    FVIR
	   PAIRS       4      17      13      59      59       0
	 --------------------------------------------------------

  DFHelper Memory: AOs need 0.027 [GiB]; user supplied 3.492 [GiB]. Using in-core AOs.


         ------------------------------------------------------------
                                     CPHF                           
                                  Rob Parrish                       
         ------------------------------------------------------------

  ==> Geometry <==

    Molecular point group: c1
    Full point group: C1

    Geometry (in Angstrom), charge = 0, multiplicity = 1:

       Center              X                  Y                   Z               Mass       
    ------------   -----------------  -----------------  -----------------  -----------------
         C           -1.085209772197    -1.185696570917    -1.119091241119    12.000000000000
         C            1.086094398027     1.188127243536     1.115673105761    12.000000000000
         C            0.145034691833    -0.634538394431    -0.400401220562    12.000000000000
         C           -0.145985295028     0.631913644993     0.404085709937    12.000000000000
         H           -1.493862930612    -0.441696760591    -1.826629092301     1.007825032070
         H           -0.844037120240    -2.099627174595    -1.690633396641     1.007825032070
         H           -1.882588919319    -1.438363544002    -0.396947294982     1.007825032070
         H            1.499872528668     0.447132337162     1.823401806798     1.007825032070
         H            0.845215654581     2.103018723546     1.685804999322     1.007825032070
         H            1.879544607763     1.440835765384     0.389243784033     1.007825032070
         H            0.554949006948    -1.407135305103     0.278379487793     1.007825032070
         H            0.940193998313    -0.417692780986    -1.139586355980     1.007825032070
         H           -0.561781506175     1.402194476109    -0.273775789807     1.007825032070
         H           -0.936719738744     0.413645102504     1.147570420100     1.007825032070

  Nuclear repulsion =  130.149654430039760
[...]

  ==> CPHF Iterations <==

  => Iterations <=

             Iter  Converged  Remaining    Residual
  CGR           1          0          1   9.590E-02
  CGR           2          0          1   1.021E-02
  CGR           3          0          1   3.596E-03
  CGR           4          0          1   3.375E-04
  CGR           5          0          1   5.898E-05
  CGR           6          0          1   9.917E-06
  CGR           7          0          1   1.745E-06
  CGR           8          1          0   3.214E-07

    CGRSolver converged.

  ==> DFCorrGrad: Density-Fitted Correlated Gradients <==

    OpenMP threads:              1
    Integrals threads:           1
    Memory (MB):              3576
    Schwarz Cutoff:          0E+00
    Fitting Condition:       1E-12

   => Auxiliary Basis Set <=

  Basis Set: (DEF2-SV(P) AUX)
    Blend: DEF2-SV_P_-JKFIT
    Number of shells: 160
    Number of basis function: 480
    Number of Cartesian functions: 556
    Spherical Harmonics?: true
    Max angular momentum: 4

	-----------------------------------------------------------
	 ==================> DF-MP2 Energies <==================== 
	-----------------------------------------------------------
	 Reference Energy          =    -157.1604215603169905 [Eh]
	 Singles Energy            =      -0.0000000000000000 [Eh]
	 Same-Spin Energy          =      -0.1186612280768739 [Eh]
	 Opposite-Spin Energy      =      -0.3969905630517881 [Eh]
	 Correlation Energy        =      -0.5156517911286620 [Eh]
	 Total Energy              =    -157.6760733514456660 [Eh]
	-----------------------------------------------------------
	 ================> DF-SCS-MP2 Energies <================== 
	-----------------------------------------------------------
	 SCS Same-Spin Scale       =       0.3333333333333333 [-]
	 SCS Opposite-Spin Scale   =       1.2000000000000000 [-]
	 SCS Same-Spin Energy      =      -0.0395537426922913 [Eh]
	 SCS Opposite-Spin Energy  =      -0.4763886756621458 [Eh]
	 SCS Correlation Energy    =      -0.5159424183544371 [Eh]
	 SCS Total Energy          =    -157.6763639786714180 [Eh]
	-----------------------------------------------------------


  -Total Gradient:
     Atom            X                  Y                   Z
    ------   -----------------  -----------------  -----------------
       1        0.000007862461    -0.000018852730    -0.000030478756
       2       -0.000004680068     0.000027992257     0.000017703683
       3       -0.000056049739     0.000002433170     0.000015861743
       4        0.000053804669    -0.000006314443    -0.000009224200
       5        0.000004373721    -0.000028013234     0.000025010896
       6       -0.000019060318     0.000040025729     0.000018095542
       7        0.000030932657     0.000010991788    -0.000026973275
       8       -0.000012298308     0.000028189429    -0.000029546022
       9        0.000019548383    -0.000038235343    -0.000021710942
      10       -0.000021828558    -0.000009131185     0.000027498470
      11        0.000009322014     0.000017921957    -0.000015395455
      12       -0.000010379873    -0.000013987001     0.000028606769
      13       -0.000009422589    -0.000020425389     0.000024740118
      14        0.000007875548     0.000007404996    -0.000024188571


*** tstop() called on cassandra at Fri Dec 14 16:40:12 2018
Module time:
	user time   =       3.42 seconds =       0.06 minutes
	system time =       0.04 seconds =       0.00 minutes
	total time  =          3 seconds =       0.05 minutes
Total time:
	user time   =      17.78 seconds =       0.30 minutes
	system time =       0.21 seconds =       0.00 minutes
	total time  =         18 seconds =       0.30 minutes

			-----------------------------------------
			 OPTKING 2.0: for geometry optimizations 
			  - R.A. King,  Bethel University        
			-----------------------------------------

	Previous internal coordinate definitions found.
	---Fragment 1 Geometry and Gradient---
	 C          -2.0511159295       -2.2428337003       -2.1118290407
	 C           2.0513765225        2.2434895143        2.1108708027
	 C           0.2735304626       -1.1972932640       -0.7591321061
	 C          -0.2738104055        1.1965915931        0.7601576881
	 H          -2.8295346465       -0.8397156271       -3.4473796960
	 H          -1.5963451775       -3.9689810753       -3.1924749377
	 H          -3.5548829831       -2.7223376343       -0.7454148543
	 H           2.8310560127        0.8411513104        3.4464851380
	 H           1.5967304659        3.9699345130        3.1910908326
	 H           3.5541568466        2.7229266027        0.7433258217
	 H           1.0538720841       -2.6544783026        0.5227941193
	 H           1.7741170477       -0.7883503390       -2.1579093528
	 H          -1.0557241850        2.6532285597       -0.5214023573
	 H          -1.7732150699        0.7871680019        2.1600834341
	             0.0000078625       -0.0000188527       -0.0000304788
	            -0.0000046801        0.0000279923        0.0000177037
	            -0.0000560497        0.0000024332        0.0000158617
	             0.0000538047       -0.0000063144       -0.0000092242
	             0.0000043737       -0.0000280132        0.0000250109
	            -0.0000190603        0.0000400257        0.0000180955
	             0.0000309327        0.0000109918       -0.0000269733
	            -0.0000122983        0.0000281894       -0.0000295460
	             0.0000195484       -0.0000382353       -0.0000217109
	            -0.0000218286       -0.0000091312        0.0000274985
	             0.0000093220        0.0000179220       -0.0000153955
	            -0.0000103799       -0.0000139870        0.0000286068
	            -0.0000094226       -0.0000204254        0.0000247401
	             0.0000078755        0.0000074050       -0.0000241886

	---Fragment 1 Intrafragment Coordinates---
	 - Coordinate -           - BOHR/RAD -       - ANG/DEG -
	 R(1,3)           =         2.885641	       1.527016
	 R(1,5)           =         2.087671	       1.104748
	 R(1,6)           =         2.086671	       1.104219
	 R(1,7)           =         2.087661	       1.104742
	 R(2,4)           =         2.885640	       1.527015
	 R(2,8)           =         2.087659	       1.104741
	 R(2,9)           =         2.086670	       1.104218
	 R(2,10)          =         2.087675	       1.104750
	 R(3,4)           =         2.887648	       1.528077
	 R(3,11)          =         2.091807	       1.106937
	 R(3,12)          =         2.091787	       1.106926
	 R(4,13)          =         2.091788	       1.106926
	 R(4,14)          =         2.091802	       1.106934
	 B(1,3,4)         =         1.976113	     113.222914
	 B(1,3,11)        =         1.912824	     109.596736
	 B(1,3,12)        =         1.912695	     109.589352
	 B(2,4,3)         =         1.976105	     113.222477
	 B(2,4,13)        =         1.912763	     109.593258
	 B(2,4,14)        =         1.912753	     109.592694
	 B(3,1,5)         =         1.935577	     110.900415
	 B(3,1,6)         =         1.946491	     111.525747
	 B(3,1,7)         =         1.935508	     110.896416
	 B(3,4,13)        =         1.902652	     109.013936
	 B(3,4,14)        =         1.902568	     109.009111
	 B(4,2,8)         =         1.935527	     110.897512
	 B(4,2,9)         =         1.946488	     111.525570
	 B(4,2,10)        =         1.935555	     110.899155
	 B(4,3,11)        =         1.902631	     109.012705
	 B(4,3,12)        =         1.902580	     109.009779
	 B(5,1,6)         =         1.881715	     107.814337
	 B(5,1,7)         =         1.880219	     107.728613
	 B(6,1,7)         =         1.881729	     107.815141
	 B(8,2,9)         =         1.881729	     107.815116
	 B(8,2,10)        =         1.880219	     107.728639
	 B(9,2,10)        =         1.881721	     107.814696
	 B(11,3,12)       =         1.852899	     106.163284
	 B(13,4,14)       =         1.852900	     106.163327
	 D(1,3,4,2)       =        -3.140664	    -179.946768
	 D(1,3,4,13)      =        -1.006757	     -57.682905
	 D(1,3,4,14)      =         1.008688	      57.793589
	 D(2,4,3,11)      =         1.008547	      57.785505
	 D(2,4,3,12)      =        -1.006891	     -57.690631
	 D(3,4,2,8)       =        -1.043917	     -59.812066
	 D(3,4,2,9)       =        -3.141363	    -179.986838
	 D(3,4,2,10)      =         1.044367	      59.837809
	 D(4,3,1,5)       =         1.043593	      59.793503
	 D(4,3,1,6)       =         3.141058	     179.969375
	 D(4,3,1,7)       =        -1.044692	     -59.856446
	 D(5,1,3,11)      =        -3.111308	    -178.264839
	 D(5,1,3,12)      =        -1.084530	     -62.139018
	 D(6,1,3,11)      =        -1.013844	     -58.088967
	 D(6,1,3,12)      =         1.012934	      58.036854
	 D(7,1,3,11)      =         1.083591	      62.085212
	 D(7,1,3,12)      =         3.110369	     178.211033
	 D(8,2,4,13)      =         3.111006	     178.247522
	 D(8,2,4,14)      =         1.084229	      62.121726
	 D(9,2,4,13)      =         1.013561	      58.072750
	 D(9,2,4,14)      =        -1.013217	     -58.053046
	 D(10,2,4,13)     =        -1.083895	     -62.102603
	 D(10,2,4,14)     =        -3.110672	    -178.228399
	 D(11,3,4,13)     =        -3.140731	    -179.950632
	 D(11,3,4,14)     =        -1.125286	     -64.474138
	 D(12,3,4,13)     =         1.127016	      64.573233
	 D(12,3,4,14)     =        -3.140725	    -179.950273

	Current energy   :      -157.6760733514

	Energy change for the previous step:
		Projected    :        -0.0000024867
		Actual       :        -0.0000008863

	Performing BFGS update.
	Previous computed or guess Hessian on step 1.
	Steps to be used in Hessian update: 4 3
	Taking RFO optimization step.
	Going to follow RFO solution 1.
	Using RFO vector 1.
	Norm of target step-size    0.00329
	Projected energy change by RFO approximation:        -0.0000001354

	Back-transformation to cartesian coordinates...
	Successfully converged to displaced geometry.
	First geometry is closer to target in internal coordinates, so am using that one.
	First geometry has RMS(Delta(q)) = 8.34e-07

	--- Internal Coordinate Step in ANG or DEG, aJ/ANG or AJ/DEG ---
	 ---------------------------------------------------------------------------
	   Coordinate                Previous        Force       Change         New 
	   ----------                --------       ------       ------       ------
	    1 R(1,3)          =      1.527016     0.000117     0.000048     1.527063
	    2 R(1,5)          =      1.104748     0.000300     0.000051     1.104800
	    3 R(1,6)          =      1.104219     0.000384     0.000070     1.104289
	    4 R(1,7)          =      1.104742     0.000350     0.000059     1.104801
	    5 R(2,4)          =      1.527015     0.000125     0.000049     1.527063
	    6 R(2,8)          =      1.104741     0.000350     0.000059     1.104800
	    7 R(2,9)          =      1.104218     0.000388     0.000070     1.104288
	    8 R(2,10)         =      1.104750     0.000295     0.000051     1.104801
	    9 R(3,4)          =      1.528077     0.000187     0.000045     1.528123
	   10 R(3,11)         =      1.106937     0.000152     0.000024     1.106960
	   11 R(3,12)         =      1.106926     0.000241     0.000038     1.106964
	   12 R(4,13)         =      1.106926     0.000213     0.000034     1.106960
	   13 R(4,14)         =      1.106934     0.000192     0.000030     1.106964
	   14 B(1,3,4)        =    113.222914    -0.000001    -0.007509   113.215405
	   15 B(1,3,11)       =    109.596736    -0.000000    -0.007492   109.589244
	   16 B(1,3,12)       =    109.589352     0.000000     0.000895   109.590247
	   17 B(2,4,3)        =    113.222477    -0.000001    -0.007064   113.215413
	   18 B(2,4,13)       =    109.593258     0.000000    -0.003774   109.589484
	   19 B(2,4,14)       =    109.592694    -0.000000    -0.002670   109.590023
	   20 B(3,1,5)        =    110.900415    -0.000001    -0.003580   110.896835
	   21 B(3,1,6)        =    111.525747    -0.000001    -0.005863   111.519884
	   22 B(3,1,7)        =    110.896416     0.000001     0.001279   110.897695
	   23 B(3,4,13)       =    109.013936     0.000000    -0.001663   109.012273
	   24 B(3,4,14)       =    109.009111     0.000001     0.004348   109.013459
	   25 B(4,2,8)        =    110.897512     0.000000    -0.000475   110.897037
	   26 B(4,2,9)        =    111.525570    -0.000001    -0.005680   111.519890
	   27 B(4,2,10)       =    110.899155    -0.000000    -0.001596   110.897559
	   28 B(4,3,11)       =    109.012705     0.000001    -0.000646   109.012059
	   29 B(4,3,12)       =    109.009779     0.000001     0.003909   109.013688
	   30 B(5,1,6)        =    107.814337     0.000001     0.002281   107.816618
	   31 B(5,1,7)        =    107.728613     0.000000     0.004867   107.733480
	   32 B(6,1,7)        =    107.815141     0.000000     0.001529   107.816670
	   33 B(8,2,9)        =    107.815116     0.000000     0.001566   107.816683
	   34 B(8,2,10)       =    107.728639     0.000000     0.004801   107.733441
	   35 B(9,2,10)       =    107.814696     0.000001     0.001872   107.816568
	   36 B(11,3,12)      =    106.163284     0.000000     0.012180   106.175464
	   37 B(13,4,14)      =    106.163327     0.000000     0.012125   106.175453
	   38 D(1,3,4,2)      =   -179.946768    -0.000000    -0.053232  -180.000000
	   39 D(1,3,4,13)     =    -57.682905    -0.000000    -0.064396   -57.747300
	   40 D(1,3,4,14)     =     57.793589    -0.000000    -0.048497    57.745092
	   41 D(2,4,3,11)     =     57.785505     0.000000    -0.038393    57.747111
	   42 D(2,4,3,12)     =    -57.690631    -0.000000    -0.054672   -57.745303
	   43 D(3,4,2,8)      =    -59.812066    -0.000000    -0.017837   -59.829903
	   44 D(3,4,2,9)      =   -179.986838    -0.000000    -0.015689  -180.002526
	   45 D(3,4,2,10)     =     59.837809     0.000000    -0.013167    59.824641
	   46 D(4,3,1,5)      =     59.793503     0.000000     0.037081    59.830584
	   47 D(4,3,1,6)      =    179.969375     0.000000     0.033609   180.002984
	   48 D(4,3,1,7)      =    -59.856446     0.000000     0.032480   -59.823967
	   49 D(5,1,3,11)     =   -178.264839    -0.000000     0.025644  -178.239195
	   50 D(5,1,3,12)     =    -62.139018     0.000000     0.036557   -62.102461
	   51 D(6,1,3,11)     =    -58.088967    -0.000000     0.022172   -58.066795
	   52 D(6,1,3,12)     =     58.036854     0.000000     0.033085    58.069939
	   53 D(7,1,3,11)     =     62.085212    -0.000000     0.021043    62.106254
	   54 D(7,1,3,12)     =    178.211033     0.000000     0.031956   178.242988
	   55 D(8,2,4,13)     =    178.247522     0.000000    -0.008101   178.239421
	   56 D(8,2,4,14)     =     62.121726    -0.000000    -0.019035    62.102691
	   57 D(9,2,4,13)     =     58.072750     0.000000    -0.005952    58.066798
	   58 D(9,2,4,14)     =    -58.053046    -0.000000    -0.016887   -58.069932
	   59 D(10,2,4,13)    =    -62.102603     0.000000    -0.003431   -62.106034
	   60 D(10,2,4,14)    =   -178.228399    -0.000000    -0.014366  -178.242765
	   61 D(11,3,4,13)    =   -179.950632    -0.000000    -0.049368  -180.000000
	   62 D(11,3,4,14)    =    -64.474138     0.000000    -0.033330   -64.507468
	   63 D(12,3,4,13)    =     64.573233    -0.000000    -0.065508    64.507725
	   64 D(12,3,4,14)    =   -179.950273    -0.000000    -0.049727  -180.000000
	 ---------------------------------------------------------------------------
	Successfully symmetrized geometry.

  ==> Convergence Check <==

  Measures of convergence in internal coordinates in au.
  Criteria marked as inactive (o), active & met (*), and active & unmet ( ).
  ---------------------------------------------------------------------------------------------
   Step     Total Energy     Delta E     MAX Force     RMS Force      MAX Disp      RMS Disp   
  ---------------------------------------------------------------------------------------------
    Convergence Criteria    1.00e-06 *    3.00e-04 *             o    1.20e-03 *             o
  ---------------------------------------------------------------------------------------------
      5    -157.67607335   -8.86e-07 *    4.71e-05 *    1.63e-05 o    1.14e-03 *    4.11e-04 o  ~
  ---------------------------------------------------------------------------------------------


  **** Optimization is complete! (in 5 steps) ****

  ==> Optimization Summary <==

  Measures of convergence in internal coordinates in au.
  --------------------------------------------------------------------------------------------------------------- ~
   Step         Total Energy             Delta E       MAX Force       RMS Force        MAX Disp        RMS Disp  ~
  --------------------------------------------------------------------------------------------------------------- ~
      1    -157.674785134154   -157.674785134154      0.00727121      0.00340184      0.04913309      0.01734240  ~
      2    -157.675996353066     -0.001211218912      0.00377394      0.00085996      0.01265618      0.00630248  ~
      3    -157.676071150918     -0.000074797852      0.00023190      0.00009395      0.01530045      0.00527631  ~
      4    -157.676072465180     -0.000001314263      0.00005956      0.00002696      0.00863242      0.00320379  ~
      5    -157.676073351446     -0.000000886265      0.00004713      0.00001628      0.00114332      0.00041083  ~
  --------------------------------------------------------------------------------------------------------------- ~

	Writing optimization data to binary file.
	Final energy is   -157.6760733514457
	Final (previous) structure:
	Cartesian Geometry (in Angstrom)
	    C    -1.0854038021  -1.1868564769  -1.1175317968
	    C     1.0855417020   1.1872035187   1.1170247190
	    C     0.1447460867  -0.6335803073  -0.4017154089
	    C    -0.1448942261   0.6332089991   0.4022581235
	    H    -1.4973252459  -0.4443583716  -1.8242747645
	    H    -0.8447494850  -2.1002943264  -1.6893849760
	    H    -1.8811630539  -1.4405990302  -0.3944565519
	    H     1.4981303182   0.4451181024   1.8238013848
	    H     0.8449533708   2.1007988639   1.6886525391
	    H     1.8807787990   1.4409106988   0.3933510834
	    H     0.5576850877  -1.4046894185   0.2766507327
	    H     0.9388223070  -0.4171770318  -1.1419164477
	    H    -0.5586651773   1.4040280829  -0.2759142440
	    H    -0.9383450009   0.4165513659   1.1430669220
	Saving final (previous) structure.
	Removing binary optimization data file.
			--------------------------
			 OPTKING Finished Execution 
			--------------------------

    Final optimized geometry and variables:
    Molecular point group: c1
    Full point group: C1

    Geometry (in Angstrom), charge = 0, multiplicity = 1:

    C           -1.085403802061    -1.186856476853    -1.117531796795
    C            1.085541701968     1.187203518702     1.117024719048
    C            0.144746086682    -0.633580307314    -0.401715408880
    C           -0.144894226066     0.633208999082     0.402258123492
    H           -1.497325245869    -0.444358371569    -1.824274764477
    H           -0.844749484991    -2.100294326400    -1.689384976007
    H           -1.881163053865    -1.440599030165    -0.394456551866
    H            1.498130318165     0.445118102444     1.823801384756
    H            0.844953370815     2.100798863858     1.688652539129
    H            1.880778798988     1.440910698818     0.393351083388
    H            0.557685087663    -1.404689418457     0.276650732731
    H            0.938822306995    -0.417177031759    -1.141916447719
    H           -0.558665177270     1.404028082948    -0.275914243972
    H           -0.938345000931     0.416551365949     1.143066921995

	Removing binary optimization data file.
	Cleaning optimization helper files.

    Psi4 stopped on: Friday, 14 December 2018 04:40PM
    Psi4 wall time for execution: 0:00:18.05

*** Psi4 exiting successfully. Buy a developer a beer!
