    -----------------------------------------------------------------------
          Psi4: An Open-Source Ab Initio Electronic Structure Package
                              Psi4 1.0.24 Driver

                          Git: Rev {master} 45aac03 dirty

    J. M. Turney, A. C. Simmonett, R. M. Parrish, E. G. Hohenstein,
    F. A. Evangelista, J. T. Fermann, B. J. Mintz, L. A. Burns, J. J. Wilke,
    M. L. Abrams, N. J. Russ, M. L. Leininger, C. L. Janssen, E. T. Seidl,
    W. D. Allen, H. F. Schaefer, R. A. King, E. F. Valeev, C. D. Sherrill,
    and T. D. Crawford, WIREs Comput. Mol. Sci. 2, 556-565 (2012)
    (doi: 10.1002/wcms.93)

                         Additional Contributions by
    A. E. DePrince, U. Bozkaya, A. Yu. Sokolov, D. G. A. Smith, R. Di Remigio,
    R. M. Richard, J. F. Gonthier, H. R. McAlexander, M. Saitow, and
    B. P. Pritchard
    -----------------------------------------------------------------------


    Psi4 started on: Tue Oct 11 15:16:10 2016

    Process ID:  29637
    PSI4DATADIR: /home/limvt/local/miniconda2/share/psi4
    Memory level set to 256.000 MB

  ==> Input File <==

--------------------------------------------------------------------------
memory 1.5 Gb
molecule AlkEthOH_c1178_1 {
  0 1
  C     0.2379     1.3772     -3.1189
  C     0.2691    -0.8621      2.5232
  C     0.9818    -1.9684      0.3928
  C    -1.7523    -0.8724      0.0156
  C    -1.0153     1.3317      0.9769
  C    -0.7051     0.8352     -2.0619
  C     0.5885    -0.6424      1.0505
  C    -0.5661     0.0558      0.2662
  O     1.7100     0.2343      1.0342
  O     0.0858     0.4086     -0.9699
  H     0.8021     2.2370     -2.7210
  H     0.9569     0.5972     -3.4208
  H    -0.3248     1.7035     -4.0110
  H     0.1258     0.0999      3.0399
  H    -0.6254    -1.4927      2.6627
  H     1.1293    -1.3688      2.9939
  H     1.1506    -1.8253     -0.6877
  H     1.9242    -2.3101      0.8540
  H     0.2175    -2.7519      0.5362
  H    -1.4793    -1.6947     -0.6658
  H    -2.1095    -1.3057      0.9652
  H    -2.5954    -0.3169     -0.4313
  H    -0.1321     1.9284      1.2559
  H    -1.6629     1.9343      0.3169
  H    -1.5964     1.0984      1.8850
  H    -1.2929    -0.0092     -2.4727
  H    -1.4222     1.6213     -1.7539
  H     1.7893     0.5287      0.1054
  units angstrom
}

set basis def2-tzvp
set freeze_core True
energy('b3lyp-d3mbj')--------------------------------------------------------------------------

  Memory set to   1.500 GiB by Python script.

*** tstart() called on c-15-41.local
*** at Tue Oct 11 15:16:15 2016


         ---------------------------------------------------------
                                   SCF
            by Justin Turney, Rob Parrish, and Andy Simmonett
                              RKS Reference
                        1 Threads,   1500 MiB Core
         ---------------------------------------------------------

  ==> Geometry <==

    Molecular point group: c1
    Full point group: C1

    Geometry (in Angstrom), charge = 0, multiplicity = 1:

       Center              X                  Y                   Z               Mass       
    ------------   -----------------  -----------------  -----------------  -----------------
           C          0.237898588121     1.377190762232    -3.118900350733    12.000000000000
           C          0.269098588121    -0.862109237768     2.523199649267    12.000000000000
           C          0.981798588121    -1.968409237768     0.392799649267    12.000000000000
           C         -1.752301411879    -0.872409237768     0.015599649267    12.000000000000
           C         -1.015301411879     1.331690762232     0.976899649267    12.000000000000
           C         -0.705101411879     0.835190762232    -2.061900350733    12.000000000000
           C          0.588498588121    -0.642409237768     1.050499649267    12.000000000000
           C         -0.566101411879     0.055790762232     0.266199649267    12.000000000000
           O          1.709998588121     0.234290762232     1.034199649267    15.994914619560
           O          0.085798588121     0.408590762232    -0.969900350733    15.994914619560
           H          0.802098588121     2.236990762232    -2.721000350733     1.007825032070
           H          0.956898588121     0.597190762232    -3.420800350733     1.007825032070
           H         -0.324801411879     1.703490762232    -4.011000350733     1.007825032070
           H          0.125798588121     0.099890762232     3.039899649267     1.007825032070
           H         -0.625401411879    -1.492709237768     2.662699649267     1.007825032070
           H          1.129298588121    -1.368809237768     2.993899649267     1.007825032070
           H          1.150598588121    -1.825309237768    -0.687700350733     1.007825032070
           H          1.924198588121    -2.310109237768     0.853999649267     1.007825032070
           H          0.217498588121    -2.751909237768     0.536199649267     1.007825032070
           H         -1.479301411879    -1.694709237768    -0.665800350733     1.007825032070
           H         -2.109501411879    -1.305709237768     0.965199649267     1.007825032070
           H         -2.595401411879    -0.316909237768    -0.431300350733     1.007825032070
           H         -0.132101411879     1.928390762232     1.255899649267     1.007825032070
           H         -1.662901411879     1.934290762232     0.316899649267     1.007825032070
           H         -1.596401411879     1.098390762232     1.884999649267     1.007825032070
           H         -1.292901411879    -0.009209237768    -2.472700350733     1.007825032070
           H         -1.422201411879     1.621290762232    -1.753900350733     1.007825032070
           H          1.789298588121     0.528690762232     0.105399649267     1.007825032070

  Running in c1 symmetry.

  Rotational constants: A =      0.06466  B =      0.03013  C =      0.02806 [cm^-1]
  Rotational constants: A =   1938.39244  B =    903.23591  C =    841.30968 [MHz]
  Nuclear repulsion =  630.181041339200760

  Charge       = 0
  Multiplicity = 1
  Electrons    = 82
  Nalpha       = 41
  Nbeta        = 41

  ==> Algorithm <==

  SCF Algorithm Type is DF.
  DIIS enabled.
  MOM disabled.
  Fractional occupation disabled.
  Guess Type is SAD.
  Energy threshold   = 1.00e-06
  Density threshold  = 1.00e-06
  Integral threshold = 0.00e+00

  ==> Primary Basis <==

  Basis Set: DEF2-TZVP
    Number of shells: 182
    Number of basis function: 418
    Number of Cartesian functions: 468
    Spherical Harmonics?: true
    Max angular momentum: 3

  ==> DFT Potential <==

   => B3LYP-D3MBJ Composite Functional <= 

    B3LYP Hybrid-GGA Exchange-Correlation Functional (VWN1-RPA)

    P.J. Stephens et. al., J. Phys. Chem., 98, 11623-11627, 1994

    Points   =           5000
    Deriv    =              1
    GGA      =           TRUE
    Meta     =          FALSE

    X_LRC        =          FALSE
    X_Hybrid     =           TRUE
    X_Alpha      =   2.000000E-01
    X_Omega      =   0.000000E+00
    C_LRC        =          FALSE
    C_Hybrid     =          FALSE
    C_Alpha      =   0.000000E+00
    C_Omega      =   0.000000E+00

   => Exchange Functionals <=

    0.8000    B3_X
    0.2000      HF 

   => Correlation Functionals <=

    0.1900 VWN3RPA_C
    0.8100   LYP_C

   => -D3MBJ: Empirical Dispersion <=

    Grimme's -D3 (BJ-damping, short-range refitted) Dispersion Correction

    Grimme S.; Ehrlich S.; Goerigk L. (2011), J. Comput. Chem., 32: 1456

    S6  =   1.000000E+00
    S8  =   1.466677E+00
    A1  =   2.786720E-01
    A2  =   4.606311E+00

   => Molecular Quadrature <=

    Radial Scheme    =       TREUTLER
    Pruning Scheme   =           FLAT
    Nuclear Scheme   =       TREUTLER

    BS radius alpha  =              1
    Pruning alpha    =              1
    Radial Points    =             75
    Spherical Points =            302
    Total Points     =         630078
    Total Blocks     =            498
    Max Points       =           4895
    Max Functions    =            398

  ==> Pre-Iterations <==

   -------------------------------------------------------
    Irrep   Nso     Nmo     Nalpha   Nbeta   Ndocc  Nsocc
   -------------------------------------------------------
     A        418     418       0       0       0       0
   -------------------------------------------------------
    Total     418     418      41      41      41       0
   -------------------------------------------------------

  ==> Integral Setup <==

  ==> DFJK: Density-Fitted J/K Matrices <==

    J tasked:                  Yes
    K tasked:                  Yes
    wK tasked:                  No
    OpenMP threads:              1
    Integrals threads:           1
    Memory (MB):              1072
    Algorithm:                Core
    Integral Cache:           NONE
    Schwarz Cutoff:          1E-12
    Fitting Condition:       1E-12

   => Auxiliary Basis Set <=

  Basis Set: 
    Number of shells: 358
    Number of basis function: 1078
    Number of Cartesian functions: 1258
    Spherical Harmonics?: true
    Max angular momentum: 4

  Minimum eigenvalue in the overlap matrix is 1.0275847663E-04.
  Using Symmetric Orthogonalization.
  SCF Guess: Superposition of Atomic Densities via on-the-fly atomic UHF.

  ==> Iterations <==

                           Total Energy        Delta E     RMS |[F,P]|

   @DF-RKS iter   0:  -467.80105897467536   -4.67801e+02   1.32204e-02 
   @DF-RKS iter   1:  -466.00009431323531    1.80096e+00   2.12414e-03 
   @DF-RKS iter   2:  -465.72310032756548    2.76994e-01   2.84704e-03 DIIS
   @DF-RKS iter   3:  -466.36032552812355   -6.37225e-01   4.75240e-04 DIIS
   @DF-RKS iter   4:  -466.37311965192055   -1.27941e-02   1.64254e-04 DIIS
   @DF-RKS iter   5:  -466.37490304914729   -1.78340e-03   3.17588e-05 DIIS
   @DF-RKS iter   6:  -466.37496288841169   -5.98393e-05   1.39349e-05 DIIS
   @DF-RKS iter   7:  -466.37497569478035   -1.28064e-05   2.62852e-06 DIIS
   @DF-RKS iter   8:  -466.37497608414799   -3.89368e-07   1.09275e-06 DIIS
   @DF-RKS iter   9:  -466.37497616456733   -8.04193e-08   2.48704e-07 DIIS

  ==> Post-Iterations <==

    Orbital Energies (a.u.)
    -----------------------

    Doubly Occupied:                                                      

       1A    -19.132788     2A    -19.108234     3A    -10.232009  
       4A    -10.224693     5A    -10.223081     6A    -10.170475  
       7A    -10.170326     8A    -10.160854     9A    -10.159141  
      10A    -10.154525    11A     -1.047593    12A     -1.006687  
      13A     -0.811557    14A     -0.758893    15A     -0.739240  
      16A     -0.700519    17A     -0.679269    18A     -0.641137  
      19A     -0.591323    20A     -0.547774    21A     -0.516588  
      22A     -0.486904    23A     -0.479426    24A     -0.459846  
      25A     -0.437480    26A     -0.431763    27A     -0.416291  
      28A     -0.406347    29A     -0.398123    30A     -0.393057  
      31A     -0.383290    32A     -0.376507    33A     -0.372235  
      34A     -0.368951    35A     -0.361978    36A     -0.353718  
      37A     -0.345580    38A     -0.319059    39A     -0.311029  
      40A     -0.273841    41A     -0.258862  

    Virtual:                                                              

      42A      0.021514    43A      0.044844    44A      0.052292  
      45A      0.060049    46A      0.076665    47A      0.081633  
      48A      0.084095    49A      0.097304    50A      0.098920  
      51A      0.102963    52A      0.104066    53A      0.108509  
      54A      0.122357    55A      0.130312    56A      0.134217  
      57A      0.141364    58A      0.144443    59A      0.154335  
      60A      0.158905    61A      0.165500    62A      0.172330  
      63A      0.175503    64A      0.178569    65A      0.188701  
      66A      0.196547    67A      0.212665    68A      0.218100  
      69A      0.226872    70A      0.233533    71A      0.254247  
      72A      0.269343    73A      0.279448    74A      0.285430  
      75A      0.292656    76A      0.304838    77A      0.316343  
      78A      0.330685    79A      0.330954    80A      0.335289  
      81A      0.354702    82A      0.362866    83A      0.372781  
      84A      0.378899    85A      0.390572    86A      0.395512  
      87A      0.401547    88A      0.405708    89A      0.409145  
      90A      0.415811    91A      0.423821    92A      0.434059  
      93A      0.436877    94A      0.438532    95A      0.440769  
      96A      0.446680    97A      0.451564    98A      0.456682  
      99A      0.463483   100A      0.468584   101A      0.478309  
     102A      0.481954   103A      0.487759   104A      0.496080  
     105A      0.496741   106A      0.500976   107A      0.511571  
     108A      0.520878   109A      0.530893   110A      0.545789  
     111A      0.558542   112A      0.568008   113A      0.573221  
     114A      0.582895   115A      0.611955   116A      0.630571  
     117A      0.645149   118A      0.650239   119A      0.665703  
     120A      0.710043   121A      0.726994   122A      0.737909  
     123A      0.744066   124A      0.752585   125A      0.781281  
     126A      0.799343   127A      0.810964   128A      0.826647  
     129A      0.836292   130A      0.842692   131A      0.863550  
     132A      0.876183   133A      0.900783   134A      0.904899  
     135A      0.917078   136A      0.920172   137A      0.944904  
     138A      0.951544   139A      0.978694   140A      0.993301  
     141A      1.007815   142A      1.010125   143A      1.024271  
     144A      1.028078   145A      1.043762   146A      1.057768  
     147A      1.074238   148A      1.097098   149A      1.105136  
     150A      1.115647   151A      1.129843   152A      1.149611  
     153A      1.159539   154A      1.171736   155A      1.191610  
     156A      1.206198   157A      1.216660   158A      1.231139  
     159A      1.254035   160A      1.265878   161A      1.271549  
     162A      1.295943   163A      1.341667   164A      1.376243  
     165A      1.425014   166A      1.451333   167A      1.455635  
     168A      1.488560   169A      1.497010   170A      1.504031  
     171A      1.512377   172A      1.520845   173A      1.527809  
     174A      1.542553   175A      1.543988   176A      1.561074  
     177A      1.562119   178A      1.565387   179A      1.571944  
     180A      1.578336   181A      1.589078   182A      1.594434  
     183A      1.598381   184A      1.612030   185A      1.617213  
     186A      1.630969   187A      1.642758   188A      1.648428  
     189A      1.665876   190A      1.680205   191A      1.684139  
     192A      1.725567   193A      1.741961   194A      1.746549  
     195A      1.761917   196A      1.783533   197A      1.792252  
     198A      1.796211   199A      1.808252   200A      1.829203  
     201A      1.840600   202A      1.863690   203A      1.885464  
     204A      1.898168   205A      1.925575   206A      1.934809  
     207A      1.950258   208A      1.976776   209A      1.992845  
     210A      2.003107   211A      2.021643   212A      2.055906  
     213A      2.072926   214A      2.092555   215A      2.100462  
     216A      2.102282   217A      2.120815   218A      2.126312  
     219A      2.141133   220A      2.156406   221A      2.165552  
     222A      2.183298   223A      2.223568   224A      2.233596  
     225A      2.253164   226A      2.263791   227A      2.271526  
     228A      2.287021   229A      2.291721   230A      2.295608  
     231A      2.306680   232A      2.316509   233A      2.334988  
     234A      2.345836   235A      2.356751   236A      2.363321  
     237A      2.378509   238A      2.385483   239A      2.387674  
     240A      2.392719   241A      2.406403   242A      2.441753  
     243A      2.447078   244A      2.453501   245A      2.468626  
     246A      2.477771   247A      2.495964   248A      2.507945  
     249A      2.519661   250A      2.536332   251A      2.542458  
     252A      2.552873   253A      2.557391   254A      2.566595  
     255A      2.571005   256A      2.583809   257A      2.589651  
     258A      2.600708   259A      2.619641   260A      2.633545  
     261A      2.636453   262A      2.647015   263A      2.651077  
     264A      2.674593   265A      2.692252   266A      2.708477  
     267A      2.711096   268A      2.736896   269A      2.742942  
     270A      2.755285   271A      2.778844   272A      2.787726  
     273A      2.801403   274A      2.824780   275A      2.839775  
     276A      2.851098   277A      2.865024   278A      2.887505  
     279A      2.900888   280A      2.909201   281A      2.932093  
     282A      2.973072   283A      2.988704   284A      3.016691  
     285A      3.026657   286A      3.048711   287A      3.063591  
     288A      3.073667   289A      3.098194   290A      3.114655  
     291A      3.122111   292A      3.144545   293A      3.164020  
     294A      3.171085   295A      3.178904   296A      3.201388  
     297A      3.214705   298A      3.233028   299A      3.238611  
     300A      3.252647   301A      3.259191   302A      3.271369  
     303A      3.281756   304A      3.297478   305A      3.309126  
     306A      3.320008   307A      3.324216   308A      3.348008  
     309A      3.359162   310A      3.367269   311A      3.379829  
     312A      3.392966   313A      3.406678   314A      3.422184  
     315A      3.431144   316A      3.451119   317A      3.454315  
     318A      3.477744   319A      3.498877   320A      3.511246  
     321A      3.513385   322A      3.521131   323A      3.555485  
     324A      3.565475   325A      3.577311   326A      3.588793  
     327A      3.606167   328A      3.633035   329A      3.659388  
     330A      3.675577   331A      3.683492   332A      3.717915  
     333A      3.737805   334A      3.752236   335A      3.766004  
     336A      3.773811   337A      3.813496   338A      3.831119  
     339A      3.847201   340A      3.873286   341A      3.893721  
     342A      3.934013   343A      3.954817   344A      3.972347  
     345A      3.998253   346A      4.013125   347A      4.027327  
     348A      4.064128   349A      4.077012   350A      4.115786  
     351A      4.120120   352A      4.148122   353A      4.154650  
     354A      4.172226   355A      4.192878   356A      4.213071  
     357A      4.261774   358A      4.288927   359A      4.322307  
     360A      4.326866   361A      4.339250   362A      4.351074  
     363A      4.384688   364A      4.388535   365A      4.402596  
     366A      4.424387   367A      4.448315   368A      4.462304  
     369A      4.474776   370A      4.495806   371A      4.515581  
     372A      4.539791   373A      4.564926   374A      4.630707  
     375A      4.722100   376A      4.753550   377A      4.783942  
     378A      4.812620   379A      4.892706   380A      4.950118  
     381A      4.991331   382A      5.017895   383A      5.064288  
     384A      5.150814   385A      5.343391   386A      5.399526  
     387A      5.450835   388A      5.472489   389A      5.558824  
     390A      5.755051   391A      5.783786   392A      5.838333  
     393A      5.899280   394A      5.943137   395A      5.996388  
     396A      6.212549   397A      6.261281   398A      6.283960  
     399A      6.538292   400A      6.757602   401A      6.806351  
     402A      6.811423   403A      6.899154   404A      6.988973  
     405A      7.055353   406A      7.208335   407A      7.330972  
     408A      7.445569   409A     22.249031   410A     22.330425  
     411A     22.364939   412A     22.412620   413A     22.416319  
     414A     22.452603   415A     22.680466   416A     22.695665  
     417A     44.156711   418A     44.464113  

    Final Occupation by Irrep:
              A 
    DOCC [    41 ]

  Energy converged.

  @DF-RKS Final Energy:  -466.37497616456733

   => Energetics <=

    Nuclear Repulsion Energy =            630.1810413392007604
    One-Electron Energy =               -1882.9701981164048448
    Two-Electron Energy =                 841.0368422167169911
    DFT Exchange-Correlation Energy =     -54.5691400440803633
    Empirical Dispersion Energy =          -0.0535215600000000
    PCM Polarization Energy =               0.0000000000000000
    EFP Energy =                            0.0000000000000000
    Total Energy =                       -466.3749761645673289


  Saving occupied orbitals to File 180.

*** tstop() called on c-15-41.local at Tue Oct 11 15:24:06 2016
Module time:
	user time   =     468.10 seconds =       7.80 minutes
	system time =       1.19 seconds =       0.02 minutes
	total time  =        471 seconds =       7.85 minutes
Total time:
	user time   =     468.10 seconds =       7.80 minutes
	system time =       1.19 seconds =       0.02 minutes
	total time  =        471 seconds =       7.85 minutes


Properties will be evaluated at   0.000000,   0.000000,   0.000000 Bohr

Properties computed using the SCF density matrix

  Nuclear Dipole Moment: (a.u.)
     X:    -4.8149      Y:    -1.2407      Z:    -1.4519

  Electronic Dipole Moment: (a.u.)
     X:     3.9664      Y:     1.1713      Z:     0.9342

  Dipole Moment: (a.u.)
     X:    -0.8485      Y:    -0.0694      Z:    -0.5177     Total:     0.9964

  Dipole Moment: (Debye)
     X:    -2.1566      Y:    -0.1765      Z:    -1.3159     Total:     2.5326


*** Psi4 exiting successfully. Buy a developer a beer!
