    -----------------------------------------------------------------------
          Psi4: An Open-Source Ab Initio Electronic Structure Package
                              Psi4 1.0.24 Driver

                          Git: Rev {master} 45aac03 dirty

    J. M. Turney, A. C. Simmonett, R. M. Parrish, E. G. Hohenstein,
    F. A. Evangelista, J. T. Fermann, B. J. Mintz, L. A. Burns, J. J. Wilke,
    M. L. Abrams, N. J. Russ, M. L. Leininger, C. L. Janssen, E. T. Seidl,
    W. D. Allen, H. F. Schaefer, R. A. King, E. F. Valeev, C. D. Sherrill,
    and T. D. Crawford, WIREs Comput. Mol. Sci. 2, 556-565 (2012)
    (doi: 10.1002/wcms.93)

                         Additional Contributions by
    A. E. DePrince, U. Bozkaya, A. Yu. Sokolov, D. G. A. Smith, R. Di Remigio,
    R. M. Richard, J. F. Gonthier, H. R. McAlexander, M. Saitow, and
    B. P. Pritchard
    -----------------------------------------------------------------------


    Psi4 started on: Tue May 30 05:19:38 2017

    Process ID:  19492
    PSI4DATADIR: /home/limvt/local/miniconda2/share/psi4
    Memory level set to 256.000 MB

  ==> Input File <==

--------------------------------------------------------------------------
memory 5.0 Gb
molecule Div_2_33 {
  -1 1
  C    -1.4285     0.9835     -0.0736
  C     1.5857    -0.4773     -0.1294
  C    -1.5541    -0.5683     -0.1312
  C     0.7286    -0.6414      1.0967
  C    -0.6611    -1.2579      0.9112
  O    -0.3023     1.4080     -0.4612
  O    -2.4066     1.6233      0.3678
  O     2.5923     0.1946     -0.1921
  O     1.2250    -1.2970     -1.1537
  H    -1.2469    -0.8964     -1.1384
  H    -2.6056    -0.8677      0.0348
  H     0.6593     0.3658      1.5317
  H     1.3162    -1.2654      1.8036
  H    -0.5504    -2.3332      0.6682
  H    -1.1628    -1.2088      1.8978
  H     1.8292    -1.0538     -1.8844
  units angstrom
}

set basis aug-cc-pVTZ
set freeze_core True
optimize('mp2')--------------------------------------------------------------------------

  Memory set to   5.000 GiB by Python script.
gradient() will perform analytic gradient computation.
    SCF Algorithm Type (re)set to DF.

*** tstart() called on c-13-33.local
*** at Tue May 30 05:19:39 2017


         ---------------------------------------------------------
                                   SCF
            by Justin Turney, Rob Parrish, and Andy Simmonett
                              RHF Reference
                        1 Threads,   5000 MiB Core
         ---------------------------------------------------------

  ==> Geometry <==

    Molecular point group: c1
    Full point group: C1

    Geometry (in Angstrom), charge = -1, multiplicity = 1:

       Center              X                  Y                   Z               Mass       
    ------------   -----------------  -----------------  -----------------  -----------------
           C         -1.428509031846     0.983503930346    -0.073604697586    12.000000000000
           C          1.585690968154    -0.477296069654    -0.129404697586    12.000000000000
           C         -1.554109031846    -0.568296069654    -0.131204697586    12.000000000000
           C          0.728590968154    -0.641396069654     1.096695302414    12.000000000000
           C         -0.661109031846    -1.257896069654     0.911195302414    12.000000000000
           O         -0.302309031846     1.408003930346    -0.461204697586    15.994914619560
           O         -2.406609031846     1.623303930346     0.367795302414    15.994914619560
           O          2.592290968154     0.194603930346    -0.192104697586    15.994914619560
           O          1.224990968154    -1.296996069654    -1.153704697586    15.994914619560
           H         -1.246909031846    -0.896396069654    -1.138404697586     1.007825032070
           H         -2.605609031846    -0.867696069654     0.034795302414     1.007825032070
           H          0.659290968154     0.365803930346     1.531695302414     1.007825032070
           H          1.316190968154    -1.265396069654     1.803595302414     1.007825032070
           H         -0.550409031846    -2.333196069654     0.668195302414     1.007825032070
           H         -1.162809031846    -1.208796069654     1.897795302414     1.007825032070
           H          1.829190968154    -1.053796069654    -1.884404697586     1.007825032070

  Running in c1 symmetry.

  Rotational constants: A =      0.09520  B =      0.03842  C =      0.03366 [cm^-1]
  Rotational constants: A =   2853.95243  B =   1151.74732  C =   1009.25071 [MHz]
  Nuclear repulsion =  461.355114780955375

  Charge       = -1
  Multiplicity = 1
  Electrons    = 70
  Nalpha       = 35
  Nbeta        = 35

  ==> Algorithm <==

  SCF Algorithm Type is DF.
  DIIS enabled.
  MOM disabled.
  Fractional occupation disabled.
  Guess Type is SAD.
  Energy threshold   = 1.00e-10
  Density threshold  = 1.00e-10
  Integral threshold = 0.00e+00

  ==> Primary Basis <==

  Basis Set: AUG-CC-PVTZ
    Number of shells: 189
    Number of basis function: 575
    Number of Cartesian functions: 670
    Spherical Harmonics?: true
    Max angular momentum: 3

  ==> Pre-Iterations <==

   -------------------------------------------------------
    Irrep   Nso     Nmo     Nalpha   Nbeta   Ndocc  Nsocc
   -------------------------------------------------------
     A        575     575       0       0       0       0
   -------------------------------------------------------
    Total     575     575      35      35      35       0
   -------------------------------------------------------

An error has occurred python-side. Traceback (most recent call last):

  File "<string>", line 60, in <module>

  File "/home/limvt/local/miniconda2/share/psi4/python/driver.py", line 1023, in optimize
    G, wfn = gradient(lowername, return_wfn=True, molecule=moleculeclone, **kwargs)

  File "/home/limvt/local/miniconda2/share/psi4/python/driver.py", line 592, in gradient
    wfn = procedures['gradient'][lowername](lowername, molecule=molecule, **kwargs)

  File "/home/limvt/local/miniconda2/share/psi4/python/procedures/proc.py", line 161, in select_mp2_gradient
    return func(name, **kwargs)

  File "/home/limvt/local/miniconda2/share/psi4/python/procedures/proc.py", line 1781, in run_dfmp2_gradient
    ref_wfn = scf_helper(name, **kwargs)  # C1 certified

  File "/home/limvt/local/miniconda2/share/psi4/python/procedures/proc.py", line 1170, in scf_helper
    scf_wfn = psi4.scf(ref_wfn, precallback, postcallback)

RuntimeError: 
Fatal Error: PSIO Error
Error occurred in file: /scratch/cdsgroup/conda-builds/work/src/lib/libpsio/error.cc on line: 128
The most recent 5 function calls were:

psi::PsiException::PsiException(std::string, char const*, int)
psi::psio_error(unsigned int, unsigned int)
psi::PSIO::open(unsigned int, int)
psi::Matrix::save(psi::PSIO*, unsigned int, psi::Matrix::SaveType)
psi::MintsHelper::one_electron_integrals()



